ITEM: TIMESTEP
0
ITEM: NUMBER OF ATOMS
192
ITEM: BOX BOUNDS pp pp pp
0.0000000000000000e+00 1.0621181999999999e+01
0.0000000000000000e+00 1.1374993999999999e+01
0.0000000000000000e+00 2.0176003000000001e+01
ITEM: ATOMS id type x y z fx fy fz
1 1 1.28381 5.75585 6.36562 -0.00284719 -0.00904058 0.000436936
2 1 6.5944 5.75585 6.36562 -0.00284731 -0.00904068 0.000436733
3 1 1.37149 0.068355 3.72238 0.00285204 -0.00903928 -0.000435134
4 1 6.68208 0.068355 3.72238 0.00284833 -0.00903904 -0.000435272
5 1 4.02678 5.61914 16.4536 0.00284865 0.00904011 0.000434694
6 1 9.33737 5.61914 16.4536 0.00285232 0.00904001 0.000434118
7 1 3.93911 11.3066 13.8104 -0.00285161 0.00903923 -0.000436958
8 1 9.2497 11.3066 13.8104 -0.00284894 0.00903878 -0.000437236
9 1 4.02678 5.61914 13.8104 0.00259723 0.00622781 -0.00224867
10 1 9.33737 5.61914 13.8104 0.00260122 0.00622758 -0.00224791
11 1 3.93911 11.3066 16.4536 -0.00260147 0.00622582 0.00224574
12 1 9.2497 11.3066 16.4536 -0.00259936 0.00622523 0.00224649
13 1 1.28381 5.75585 3.72238 -0.00259703 -0.00622749 -0.00224659
14 1 6.5944 5.75585 3.72238 -0.00259708 -0.00622747 -0.00224633
15 1 1.37149 0.068355 6.36562 0.00260054 -0.00622693 0.00224867
16 1 6.68208 0.068355 6.36562 0.00259715 -0.00622682 0.00224835
17 1 4.32383 1.52446 5.044 0.00219228 -0.0058412 0.000902572
18 1 9.63442 1.52446 5.044 0.00219297 -0.00584277 0.000902445
19 1 3.64206 7.21196 5.044 -0.00219304 -0.00584352 -0.000903211
20 1 8.95265 7.21196 5.044 -0.0021931 -0.00584317 -0.000903303
21 1 0.986765 9.85053 15.132 -0.00219189 0.00583956 0.000903789
22 1 6.29736 9.85053 15.132 -0.00219201 0.00584028 0.000903994
23 1 1.66853 4.16303 15.132 0.00219267 0.00584277 -0.000901529
24 1 6.97912 4.16303 15.132 0.00219413 0.00584477 -0.00090165
25 1 4.62383 10.1688 3.32079 -0.000570983 -0.00373535 0.00345059
26 1 9.93442 10.1688 3.32079 -0.000571422 -0.0037366 0.00345032
27 1 3.34206 4.48134 6.76722 0.000569791 -0.00373527 -0.00345363
28 1 8.65265 4.48134 6.76722 0.000569202 -0.00373423 -0.00345299
29 1 0.686761 1.20616 13.4088 0.000571504 0.00373429 0.00345311
30 1 5.99735 1.20616 13.4088 0.00057096 0.00373419 0.00345129
31 1 1.96853 6.89365 16.8552 -0.000570923 0.00373746 -0.00345069
32 1 7.27913 6.89365 16.8552 -0.000571869 0.00373654 -0.00344919
33 1 0.686761 1.20616 16.8552 0.000745781 0.00468656 -0.00292129
34 1 5.99735 1.20616 16.8552 0.000745669 0.00468676 -0.00291969
35 1 1.96853 6.89365 13.4088 -0.000742957 0.00468825 0.00292524
36 1 7.27913 6.89365 13.4088 -0.00074365 0.00468707 0.002924
37 1 4.62383 10.1688 6.76722 -0.000743531 -0.00468685 -0.00292343
38 1 9.93442 10.1688 6.76722 -0.000743613 -0.00468816 -0.00292359
39 1 3.34206 4.48134 3.32079 0.000743791 -0.00468701 0.00292324
40 1 8.65265 4.48134 3.32079 0.000743389 -0.00468616 0.00292236
41 1 2.08152 7.98761 2.65041 0.000561893 -0.00449766 -0.0012157
42 1 7.39211 7.98761 2.65041 0.000559509 -0.00449574 -0.00121489
43 1 0.573777 2.30011 7.43759 -0.000559658 -0.00449815 0.00121576
44 1 5.88437 2.30011 7.43759 -0.000559732 -0.00449666 0.00121596
45 1 3.22907 3.38739 12.7384 -0.000560604 0.00449838 -0.00121644
46 1 8.53966 3.38739 12.7384 -0.00055936 0.00449856 -0.00121516
47 1 4.73681 9.07488 17.5256 0.000558957 0.00449353 0.00121304
48 1 10.0474 9.07488 17.5256 0.000559576 0.00449431 0.001214
49 1 3.22907 3.38739 17.5256 0.000141367 0.00550494 0.00290337
50 1 8.53966 3.38739 17.5256 0.000142775 0.00550449 0.002902
51 1 4.73681 9.07488 12.7384 -0.000144526 0.00550236 -0.00290501
52 1 10.0474 9.07488 12.7384 -0.000143304 0.00550264 -0.00290573
53 1 2.08152 7.98761 7.43759 -0.000141673 -0.00550546 0.00290686
54 1 7.39211 7.98761 7.43759 -0.000143796 -0.00550392 0.00290564
55 1 0.573777 2.30011 2.65041 0.000142261 -0.00550476 -0.00290295
56 1 5.88437 2.30011 2.65041 0.00014241 -0.00550357 -0.0029034
57 2 0.607911 8.72081 5.044 -0.000293474 -0.00677638 0.000462055
58 2 5.9185 8.72081 5.044 -0.000279703 -0.00677837 0.000461525
59 2 2.04738 3.03331 5.044 0.000323143 -0.00677669 -0.000449701
60 2 7.35798 3.03331 5.044 0.000289467 -0.0067731 -0.000448096
61 2 4.70268 2.65419 15.132 0.000289464 0.00679752 0.0004493
62 2 10.0133 2.65419 15.132 0.000321373 0.00680166 0.000450776
63 2 3.26321 8.34168 15.132 -0.000311798 0.00675786 -0.000458224
64 2 8.5738 8.34168 15.132 -0.000291863 0.00674754 -0.000456198
65 2 1.13087 7.68264 20.0447 -0.00562115 -0.0025607 -0.00462095
66 2 6.44146 7.68264 20.0447 -0.00561254 -0.00256118 -0.00461844
67 2 1.52443 1.99514 10.2193 0.00565149 -0.00259949 0.00457165
68 2 6.83502 1.99514 10.2193 0.00562085 -0.00259419 0.00457339
69 2 4.17972 3.69236 9.95669 0.00562682 0.00259207 -0.00458877
70 2 9.49032 3.69236 9.95669 0.00562899 0.00259927 -0.00458744
71 2 3.78616 9.37985 0.131316 -0.00564822 0.00257081 0.00461715
72 2 9.09675 9.37985 0.131316 -0.00563527 0.00257161 0.00461872
73 2 4.17972 3.69236 0.131316 0.00356133 0.00358193 0.00249007
74 2 9.49032 3.69236 0.131316 0.00355853 0.00359064 0.00248568
75 2 3.78616 9.37985 9.95669 -0.00357527 0.00360401 -0.00246316
76 2 9.09675 9.37985 9.95669 -0.00355845 0.00360283 -0.00247072
77 2 1.13087 7.68264 10.2193 -0.00356016 -0.00360307 0.00245373
78 2 6.44146 7.68264 10.2193 -0.00355516 -0.00360422 0.00245027
79 2 1.52443 1.99514 20.0447 0.00356813 -0.00358233 -0.00248997
80 2 6.83502 1.99514 20.0447 0.00353754 -0.003575 -0.00248837
81 3 4.51166 6.69365 2.20867 -0.00503907 -0.0055451 -0.000493228
82 3 9.82225 6.69365 2.20867 -0.00504035 -0.0055454 -0.000491589
83 3 3.45423 1.00615 7.87933 0.00502357 -0.005543 0.000507683
84 3 8.76482 1.00615 7.87933 0.00502163 -0.00554331 0.000509143
85 3 0.798933 4.68135 12.2967 0.00501281 0.0055412 -0.000513375
86 3 6.10952 4.68135 12.2967 0.00502983 0.00554297 -0.000502914
87 3 1.85636 10.3688 17.9673 -0.00503498 0.00554391 0.00049597
88 3 7.16695 10.3688 17.9673 -0.00503162 0.00554345 0.000498295
89 3 0.798933 4.68135 17.9673 -0.00074628 0.00359117 0.00338662
90 3 6.10952 4.68135 17.9673 -0.000730067 0.00359302 0.00337675
91 3 1.85636 10.3688 12.2967 0.000745773 0.0035911 -0.00338922
92 3 7.16695 10.3688 12.2967 0.000748247 0.00359021 -0.00339077
93 3 4.51166 6.69365 7.87933 0.000744402 -0.00359121 0.0033913
94 3 9.82225 6.69365 7.87933 0.000744224 -0.00359146 0.00339039
95 3 3.45423 1.00615 2.20867 -0.000733376 -0.00359427 -0.00337714
96 3 8.76482 1.00615 2.20867 -0.000733316 -0.00359444 -0.0033773
97 4 3.00916 6.44719 3.38387 -0.00444724 -0.00584808 0.00152606
98 4 8.31976 6.44719 3.38387 -0.00444061 -0.0058484 0.0015232
99 4 4.95672 0.759698 6.70413 0.004456 -0.0058502 -0.00153586
100 4 10.2673 0.759698 6.70413 0.0044567 -0.00584894 -0.00153649
101 4 2.30143 4.9278 13.4719 0.00446515 0.00584963 0.00153914
102 4 7.61202 4.9278 13.4719 0.00444756 0.00584665 0.00153035
103 4 0.353869 10.6153 16.7921 -0.00445065 0.00585384 -0.00153014
104 4 5.66446 10.6153 16.7921 -0.00445133 0.00585378 -0.00153196
105 4 2.30143 4.9278 16.7921 0.00202924 0.00625546 -0.000414908
106 4 7.61202 4.9278 16.7921 0.00201243 0.00625322 -0.000406504
107 4 0.353869 10.6153 13.4719 -0.00202252 0.0062619 0.000412017
108 4 5.66446 10.6153 13.4719 -0.00202146 0.00626193 0.000412732
109 4 3.00916 6.44719 6.70413 -0.00202341 -0.00625683 -0.00041309
110 4 8.31976 6.44719 6.70413 -0.00201802 -0.00625707 -0.000410795
111 4 4.95672 0.759698 3.38387 0.00201795 -0.00625645 0.0004071
112 4 10.2673 0.759698 3.38387 0.00201531 -0.006255 0.000405192
113 4 0.916107 6.80078 1.08163 0.00384432 -0.0079816 -0.00587296
114 4 6.2267 6.80078 1.08163 0.00384954 -0.00797766 -0.00587696
115 4 1.73919 1.11329 9.00637 -0.00386077 -0.00794601 0.00592297
116 4 7.04978 1.11329 9.00637 -0.00385463 -0.00794977 0.00591671
117 4 4.39449 4.57421 11.1696 -0.00386009 0.00795764 -0.00591072
118 4 9.70508 4.57421 11.1696 -0.00385788 0.00795346 -0.00591204
119 4 3.5714 10.2617 19.0944 0.00385964 0.00796789 0.00589249
120 4 8.88199 10.2617 19.0944 0.00385651 0.00797135 0.00588915
121 4 4.39449 4.57421 19.0944 0.00328526 0.00895572 0.00434771
122 4 9.70508 4.57421 19.0944 0.00328839 0.0089522 0.00434887
123 4 3.5714 10.2617 11.1696 -0.00328591 0.00894016 -0.00437069
124 4 8.88199 10.2617 11.1696 -0.00329077 0.00894529 -0.00436428
125 4 0.916107 6.80078 9.00637 -0.00329596 -0.00894219 0.00436607
126 4 6.2267 6.80078 9.00637 -0.00329018 -0.00893712 0.00437212
127 4 1.73919 1.11329 1.08163 0.00328827 -0.00895649 -0.0043436
128 4 7.04978 1.11329 1.08163 0.00329551 -0.0089606 -0.00433657
129 4 4.23122 9.87411 1.45602 -0.00480437 -0.00552529 0.00732619
130 4 9.54181 9.87411 1.45602 -0.00480404 -0.00552335 0.00732595
131 4 3.73467 4.18661 8.63199 0.00481057 -0.00552818 -0.00731468
132 4 9.04526 4.18661 8.63199 0.00480917 -0.0055297 -0.00731409
133 4 1.07937 1.50088 11.544 0.00480914 0.00553218 0.0073179
134 4 6.38997 1.50088 11.544 0.00480813 0.00553125 0.00731993
135 4 1.57592 7.18838 18.72 -0.00480136 0.00552574 -0.00733256
136 4 6.88651 7.18838 18.72 -0.004803 0.00552762 -0.00733167
137 4 1.07937 1.50088 18.72 0.000828415 0.00445694 -0.00845224
138 4 6.38997 1.50088 18.72 0.000826836 0.00445417 -0.00845838
139 4 1.57592 7.18838 11.544 -0.000831962 0.00445721 0.00844562
140 4 6.88651 7.18838 11.544 -0.000832528 0.00445989 0.0084433
141 4 4.23122 9.87411 8.63199 -0.000835836 -0.00445917 -0.00843674
142 4 9.54181 9.87411 8.63199 -0.000836194 -0.00445825 -0.00843483
143 4 3.73467 4.18661 1.45602 0.000827134 -0.00444964 0.00845259
144 4 9.04526 4.18661 1.45602 0.000826627 -0.00445083 0.00845444
145 4 2.32838 8.66129 0.452018 -0.00404897 0.00187227 0.00239596
146 4 7.63897 8.66129 0.452018 -0.00406879 0.00185982 0.00239536
147 4 0.326918 2.97379 9.63598 0.0040639 0.00186195 -0.00240383
148 4 5.63751 2.97379 9.63598 0.00407326 0.0018564 -0.00240025
149 4 2.98221 2.7137 10.54 0.00404818 -0.00187117 0.00240597
150 4 8.2928 2.7137 10.54 0.00406213 -0.00186442 0.00240469
151 4 4.98367 8.4012 19.724 -0.00406031 -0.00186662 -0.00240397
152 4 10.2943 8.4012 19.724 -0.00405894 -0.00186838 -0.00240278
153 4 2.98221 2.7137 19.724 0.00948299 -0.00114589 -6.21974e-05
154 4 8.2928 2.7137 19.724 0.00949678 -0.00114013 -6.10948e-05
155 4 4.98367 8.4012 10.54 -0.00948907 -0.00114308 6.22869e-05
156 4 10.2943 8.4012 10.54 -0.00949172 -0.00114258 6.18398e-05
157 4 2.32838 8.66129 9.63598 -0.00947979 0.0011478 -5.94854e-05
158 4 7.63897 8.66129 9.63598 -0.00949927 0.00113501 -5.67138e-05
159 4 0.326918 2.97379 0.452018 0.00949849 0.00113724 5.73993e-05
160 4 5.63751 2.97379 0.452018 0.00950423 0.00113309 5.31375e-05
161 4 0.731039 7.16633 5.044 -0.00241148 -0.00942737 -0.000434569
162 4 6.04163 7.16633 5.044 -0.00241212 -0.00942791 -0.000434888
163 4 1.92426 1.47883 5.044 0.00241065 -0.00942677 0.000431773
164 4 7.23485 1.47883 5.044 0.00241155 -0.00942749 0.000431763
165 4 4.57955 4.20867 15.132 0.00241251 0.00941628 -0.000430898
166 4 9.89014 4.20867 15.132 0.00241204 0.00941718 -0.00043131
167 4 3.38633 9.89616 15.132 -0.00240438 0.00947011 0.00043494
168 4 8.69693 9.89616 15.132 -0.00240641 0.00947058 0.000434989
169 4 4.40336 9.1073 5.044 -0.00295621 -0.00571467 0.000270589
170 4 9.71395 9.1073 5.044 -0.0029434 -0.00571705 0.0002704
171 4 3.56253 3.4198 5.044 0.00292969 -0.00572471 -0.00027237
172 4 8.87312 3.4198 5.044 0.00294483 -0.00571889 -0.000273038
173 4 0.907232 2.26769 15.132 0.00294572 0.00571992 0.000272082
174 4 6.21782 2.26769 15.132 0.00295627 0.00571495 0.000272764
175 4 1.74806 7.95519 15.132 -0.00296509 0.00571555 -0.000271525
176 4 7.05865 7.95519 15.132 -0.00295514 0.00571488 -0.000270382
177 4 1.24191 9.36839 3.76394 0.00165772 -0.00532602 -0.00234145
178 4 6.5525 9.36839 3.76394 0.00165969 -0.00532724 -0.00234151
179 4 1.41339 3.6809 6.32407 -0.00166482 -0.00532672 0.00234163
180 4 6.72398 3.6809 6.32407 -0.00165686 -0.00533116 0.00233346
181 4 4.06868 2.0066 13.8519 -0.00166038 0.00532365 -0.00234586
182 4 9.37927 2.0066 13.8519 -0.00167313 0.00531852 -0.00235599
183 4 3.8972 7.6941 16.4121 0.00167605 0.00531867 0.00236326
184 4 9.2078 7.6941 16.4121 0.00165936 0.00532441 0.00234896
185 4 4.06868 2.0066 16.4121 -0.000775278 0.00632809 0.00139934
186 4 9.37927 2.0066 16.4121 -0.00078854 0.00632387 0.00140834
187 4 3.8972 7.6941 13.8519 0.000787258 0.00632569 -0.00140488
188 4 9.2078 7.6941 13.8519 0.000773072 0.0063308 -0.00139326
189 4 1.24191 9.36839 6.32407 0.000768691 -0.00633451 0.00138074
190 4 6.5525 9.36839 6.32407 0.000770122 -0.00633518 0.00138068
191 4 1.41339 3.6809 3.76394 -0.000780374 -0.00633061 -0.00139457
192 4 6.72398 3.6809 3.76394 -0.00077185 -0.00633539 -0.00138724
ITEM: TIMESTEP
500
ITEM: NUMBER OF ATOMS
192
ITEM: BOX BOUNDS pp pp pp
0.0000000000000000e+00 1.0621181999999999e+01
0.0000000000000000e+00 1.1374993999999999e+01
0.0000000000000000e+00 2.0176003000000001e+01
ITEM: ATOMS id type x y z fx fy fz
1 1 2.64605 6.89675 4.88494 -0.142276 -0.122667 1.29423
2 1 7.63303 6.03623 5.56989 0.573528 0.364887 0.178226
3 1 0.553371 1.35553 4.76708 -0.610804 -1.25401 0.582277
4 1 6.36933 9.83207 2.06206 -0.0553666 0.295756 0.750109
5 1 3.93075 4.91443 16.1458 -0.79268 -1.25816 0.105546
6 1 8.49783 5.70707 18.1077 -0.705679 0.14909 -0.250864
7 1 5.24977 11.287 13.0379 0.456251 0.640396 0.136353
8 1 10.3477 9.81762 14.1967 -0.229372 -0.212531 1.02404
9 1 3.31836 4.71726 14.0988 -0.886642 -1.06312 -0.718144
10 1 9.18995 4.38638 16.2271 -0.840575 -0.0694422 0.219816
11 1 5.27455 10.2668 15.3023 -0.638026 0.323884 -1.04175
12 1 10.6865 0.65691 16.7874 -0.925583 0.0600318 -0.335815
13 1 2.47966 4.73462 2.99774 0.253597 0.446998 -0.139688
14 1 7.65748 6.24205 2.48077 0.685143 0.304706 0.0639952
15 1 10.5626 0.122482 7.58347 0.124232 0.392661 -0.222582
16 1 5.05048 0.783516 5.38511 0.561196 0.776218 -2.29224
17 1 2.71698 2.16519 5.5813 0.146626 -0.287908 0.0267192
18 1 7.9422 1.02173 4.86577 1.03503 -1.06965 -0.0775516
19 1 5.26266 7.30121 4.60236 -0.854952 -0.0323644 0.494258
20 1 10.2678 6.90884 5.26046 0.166119 0.20667 0.534512
21 1 2.3311 9.33855 15.0738 -0.81704 0.472589 -0.175396
22 1 7.24387 9.28642 15.8535 0.252196 0.0113761 -0.655104
23 1 0.427019 5.48694 14.8196 0.52021 -1.15482 0.246151
24 1 6.56977 4.11257 15.4061 -0.42317 -0.822006 -0.759435
25 1 3.27355 10.4369 4.52172 -0.172677 0.796087 -0.210934
26 1 10.3864 10.4451 2.48978 0.79551 0.820655 1.15521
27 1 3.63859 5.01434 6.9967 -0.00583464 0.111953 0.115245
28 1 8.34244 5.49955 7.97734 -0.554825 0.611245 0.2005
29 1 9.93215 0.24756 12.2157 0.752769 1.60293 0.784796
30 1 7.49998 0.652883 15.4574 -0.218535 -0.0179674 -0.763975
31 1 2.15855 6.51177 16.9885 -0.414218 -0.581522 -0.236981
32 1 6.37952 6.54891 16.4158 0.0333551 0.0915221 0.118833
33 1 1.99603 0.373155 14.4182 -0.226187 -0.897078 0.872724
34 1 4.58494 -0.0457283 17.7254 0.0325781 0.493662 0.254449
35 1 2.52129 5.41742 11.99 0.320835 0.0200614 0.0223147
36 1 8.30578 5.42035 13.4046 -0.0084639 -0.331012 -0.0158804
37 1 4.94634 10.2262 6.78822 0.541671 -0.0245444 1.40282
38 1 8.68031 10.3967 6.57114 0.734739 0.0338843 -0.410709
39 1 4.4802 4.86287 4.96561 0.315529 0.587407 -0.0560971
40 1 9.21036 4.57911 3.80642 0.630148 -0.0810303 -0.114456
41 1 2.87753 8.29568 3.02602 -0.201106 0.380499 -0.508202
42 1 8.97494 8.51954 3.94413 -0.819253 0.857422 0.491582
43 1 9.06186 2.65881 6.87358 0.687066 0.267197 -0.669208
44 1 4.97884 2.67098 7.38258 0.182007 -0.0880033 0.12154
45 1 1.74029 2.43816 13.5014 -0.304567 0.984248 -0.313291
46 1 7.49879 2.86908 13.3293 -0.896151 -0.283738 -0.234621
47 1 4.20769 8.45979 17.4502 0.463867 0.0889721 -0.529928
48 1 10.3873 8.46823 17.1829 0.296263 0.258409 -0.155468
49 1 1.77321 2.46805 16.9514 0.799068 0.359428 -0.566555
50 1 6.70667 2.51435 17.1784 0.557429 -0.296102 0.275957
51 1 6.17898 7.33948 13.417 -0.655589 -0.230294 0.84581
52 1 0.727061 7.09703 13.2622 0.310334 0.510401 -0.245827
53 1 2.75758 7.82967 7.3551 0.314716 0.169078 -0.768938
54 1 7.89502 8.29054 7.35649 0.687133 -0.212658 0.153534
55 1 0.437728 2.33804 2.86427 -0.00880194 1.02771 -0.948777
56 1 5.37835 2.92573 2.78074 0.442956 -0.243297 0.216902
57 2 0.83953 9.78858 5.2208 0.885802 -0.553384 0.596708
58 2 6.42098 9.49027 4.98477 4.19147 1.11564 -0.0883883
59 2 1.19243 4.17692 5.29442 0.789047 -2.03198 -1.05378
60 2 6.80523 3.5923 5.18321 -1.08024 -1.58069 6.30789
61 2 4.58248 1.93652 15.5106 -0.81975 -0.133277 1.18438
62 2 9.73749 2.3247 14.6814 -1.63822 1.14949 1.73203
63 2 3.61337 7.23324 14.8674 -0.791488 -1.52603 1.15985
64 2 8.83643 7.26691 15.2603 3.8873 -1.40655 0.259106
65 2 1.35536 7.9668 19.7012 -1.911 0.214637 -4.40008
66 2 6.66315 7.83167 19.834 1.33909 -3.093 1.98446
67 2 1.11642 1.92 10.3628 -1.16324 -0.881351 -2.38647
68 2 6.16849 1.71085 10.5862 -0.204073 2.49938 4.66809
69 2 3.52086 3.48376 9.97378 1.10938 1.64506 -1.07596
70 2 8.82036 3.33009 9.74981 0.658372 1.49041 -2.06269
71 2 3.93452 9.54236 0.33645 -0.21518 1.09182 1.29663
72 2 9.26148 9.50554 19.838 3.89392 1.25332 4.56803
73 2 3.56059 4.00391 20.0597 0.320683 1.29302 -0.0171286
74 2 9.27276 3.72909 0.233899 -2.51024 1.54849 -0.778852
75 2 4.50292 9.3727 9.93206 -1.12944 1.77267 2.40232
76 2 9.48719 9.48589 10.0967 0.325775 -1.96032 -4.63492
77 2 1.61781 7.89531 10.3538 0.524673 0.447781 -3.45192
78 2 7.02426 7.55193 10.4946 -1.28587 -0.0080725 0.353149
79 2 1.12518 2.00364 19.8945 2.62305 1.58788 4.37145
80 2 6.42037 2.36102 0.0571319 0.61804 -2.9273 -1.38644
81 3 5.15588 6.50078 2.22004 -0.336512 0.0271053 -1.29141
82 3 10.5284 6.7562 1.96317 -0.523312 0.205355 1.35895
83 3 3.36821 0.656409 7.88554 -0.158165 0.652349 0.303115
84 3 7.37428 0.997482 7.7639 -0.536095 -0.754205 0.0137952
85 3 0.156023 4.66075 11.9063 -0.172106 -0.589438 0.502443
86 3 5.4873 4.81382 12.0442 0.260489 -0.517398 1.31743
87 3 2.01591 10.6311 17.8192 -0.200757 -0.297974 -1.16177
88 3 7.06463 10.6934 17.9848 0.538933 -0.383015 0.172581
89 3 0.448411 4.50197 17.894 0.339771 0.566531 -0.370769
90 3 5.56265 4.73771 17.8224 0.423606 -0.125545 1.309
91 3 2.81843 10.1971 12.2304 -0.960253 0.105084 0.281004
92 3 8.03335 10.1287 12.7461 -3.09656 0.132993 3.36049
93 3 5.84896 6.85404 7.61231 -2.73395 -0.652356 -1.5425
94 3 0.0966322 6.41254 8.00105 -0.501274 0.833335 -0.659978
95 3 2.93752 1.54825 2.5861 -0.507756 -0.200966 -0.619034
96 3 8.39056 1.03985 2.34867 0.263549 0.457083 -0.158347
97 4 3.60483 6.55515 3.40489 0.224505 -0.00340912 -0.232457
98 4 9.38522 6.92242 3.58692 0.0779007 -2.16796 -1.17231
99 4 5.11025 0.706278 7.00351 -0.962473 0.300892 2.23958
100 4 8.86551 0.804706 6.50643 0.117813 0.575357 0.883567
101 4 1.50223 4.34541 13.1817 1.16612 0.546708 0.359768
102 4 6.52674 4.54065 13.7593 0.644709 0.736497 -2.66845
103 4 1.05281 10.6667 16.0397 1.32561 -0.680943 1.79462
104 4 5.70781 9.83834 16.9049 -0.511336 0.0105628 1.28334
105 4 1.42504 4.72853 16.2542 0.585945 -0.410157 1.47212
106 4 7.26968 4.53342 16.9234 -0.515387 0.360957 1.04485
107 4 1.3236 10.0477 13.5179 1.36435 0.429596 -0.960355
108 4 6.77223 10.6231 14.1905 0.717723 -0.724112 -0.325503
109 4 4.23764 6.73413 6.17511 1.30313 -0.213625 1.76027
110 4 9.07906 6.83472 6.96409 -0.391698 -0.369874 -0.278549
111 4 3.59674 1.08958 4.27543 0.499979 -0.231829 0.877385
112 4 9.97714 1.11968 3.37702 -0.207791 -0.91864 0.159251
113 4 1.16357 6.79468 0.395033 0.214199 -1.14105 0.4022
114 4 6.77753 6.65102 0.751085 -0.963161 1.66081 -0.672521
115 4 1.5778 1.27525 9.03189 -0.054899 -0.168256 1.02598
116 4 6.47875 0.622483 9.65601 0.0795869 -1.12837 -0.956621
117 4 3.75243 4.74888 10.7734 1.449 0.972487 0.829471
118 4 9.38212 4.49807 10.5497 -1.88831 0.885103 -0.150701
119 4 3.93797 10.7351 19.5955 -0.187331 -0.708273 -0.335394
120 4 9.02746 10.4422 18.7116 -1.66065 1.19839 -1.50192
121 4 3.80044 5.12762 19.0025 0.025575 -1.62678 0.637511
122 4 9.63798 4.89324 19.4119 -0.348193 -1.5731 1.74155
123 4 4.41988 10.6866 10.8996 0.614282 -2.68276 -1.31121
124 4 9.23252 10.2772 11.3121 1.17043 0.604698 -1.26723
125 4 1.67115 7.35686 8.84964 0.620452 -0.259852 2.54421
126 4 6.79669 6.50832 9.36546 0.974617 -0.209044 1.38688
127 4 1.4631 1.59685 1.14105 0.643926 -0.0525711 -0.22531
128 4 6.72802 1.78186 1.4662 -1.65676 1.36168 -0.387705
129 4 4.09456 9.68605 1.85461 0.194067 -0.348947 -1.18354
130 4 10.1468 10.0574 0.830021 -2.1917 -0.782856 -1.87831
131 4 3.32209 3.83725 8.50949 0.0502687 -1.33272 0.719722
132 4 8.5281 3.81607 8.27036 0.957445 -2.33676 3.06429
133 4 0.816943 1.28042 11.6653 0.014352 -1.05841 1.0871
134 4 6.11401 1.6134 12.1621 0.243105 -0.272202 -3.48952
135 4 1.71257 7.86086 18.1886 0.68557 -0.526861 1.27536
136 4 6.83882 7.24343 18.432 0.203208 1.35236 1.1717
137 4 0.954835 1.08994 18.8075 -0.392941 -2.25594 -3.58755
138 4 6.24507 1.22742 19.209 0.358981 1.3768 0.285794
139 4 1.83874 7.08711 11.5845 -0.475871 0.0843385 -0.0144209
140 4 7.25665 7.477 12.0167 0.770658 -0.831673 -2.77436
141 4 4.54064 9.46291 8.44717 0.167393 -0.33181 0.312015
142 4 9.77062 10.0287 8.7016 -0.700237 0.154896 1.61216
143 4 3.25351 4.42589 1.30216 -0.0216967 -0.679344 -1.02941
144 4 8.98458 3.87317 1.70912 0.508181 0.710409 -0.843234
145 4 2.36081 8.96551 0.139619 1.58157 0.982953 1.11042
146 4 7.93864 8.89205 0.453256 -1.07838 -0.777329 -2.05343
147 4 10.1358 2.33967 9.86079 -0.435592 -0.563743 -0.508714
148 4 4.69286 2.45687 10.2291 1.01537 -0.686564 -0.634262
149 4 2.31885 2.89149 10.8603 -0.638817 -0.16437 -1.31194
150 4 7.32728 2.91815 10.3016 0.423769 -0.46831 0.34004
151 4 5.26421 8.53054 20.1251 -0.917992 0.574065 -0.686314
152 4 10.371 8.51864 19.2006 -0.207466 -1.29088 0.220252
153 4 2.34243 3.02997 19.4246 0.256082 0.381414 0.283101
154 4 7.69707 3.21675 19.692 0.749677 0.503737 0.997194
155 4 5.47039 8.19684 10.5198 -0.857165 1.64385 -0.237526
156 4 0.0948831 8.48078 10.3658 0.176047 0.0406875 1.37574
157 4 2.8413 8.98718 10.2414 -0.496988 -0.813654 0.0955939
158 4 8.04131 8.56084 9.77962 1.37186 0.960446 0.3793
159 4 10.305 2.58137 20.1676 -1.17077 0.664724 -0.5816
160 4 4.98705 3.16003 20.1755 0.39227 0.0152336 0.499884
161 4 1.61738 8.47013 5.75263 -0.519753 1.34735 -0.0166508
162 4 6.95871 8.13453 4.38191 -0.573565 0.00789863 0.644839
163 4 0.605419 2.8033 5.89396 1.08576 2.55898 -0.436109
164 4 6.58626 2.08589 4.95053 -0.818826 1.16808 -0.568587
165 4 4.02063 3.26249 14.9835 -0.80714 1.02995 0.0145466
166 4 9.66574 3.95945 14.5123 -0.242089 -3.1985 -0.0880247
167 4 4.25578 8.61025 14.8789 -0.724525 0.966946 -0.575939
168 4 9.33462 8.6867 15.5186 0.362967 1.30256 0.638652
169 4 4.90441 9.49891 5.1651 -1.07379 0.0295975 -1.2881
170 4 9.92672 9.5298 5.28589 0.529406 -0.20385 -0.458977
171 4 2.79303 4.06407 5.30742 -0.627571 -0.248467 0.1127
172 4 8.25799 3.96129 5.6265 -0.497924 0.26945 -0.950576
173 4 0.602565 1.82106 15.0118 -0.820768 0.432731 -0.750035
174 4 6.11266 2.01808 15.4248 0.937201 0.0317168 0.437238
175 4 2.02289 7.10237 14.7267 1.91112 1.18801 0.512449
176 4 7.34652 7.40595 15.0374 -1.78028 -0.506315 -0.436748
177 4 1.45393 9.95937 3.78488 -0.22561 -0.514585 -0.730163
178 4 7.03552 10.5889 3.96836 -1.60616 -1.33642 1.11825
179 4 0.933503 5.53649 5.95012 -0.616937 0.12882 -0.101027
180 4 5.66786 4.08868 6.42527 2.00921 -0.877686 -2.25566
181 4 4.05133 0.740838 14.6981 -0.680039 -1.14756 -1.05242
182 4 8.96292 1.63977 13.5031 1.57723 0.15874 0.11653
183 4 3.95904 6.70511 16.3889 0.0174584 0.944286 -1.05359
184 4 9.25541 6.31241 16.435 -0.710414 1.18689 0.453291
185 4 4.12455 1.74071 17.0134 -0.0824511 0.128276 -0.651003
186 4 8.8252 1.92611 15.9946 2.25442 0.484996 -0.935664
187 4 4.26741 6.25206 13.8713 -0.0178159 0.92725 0.157765
188 4 9.74158 6.63589 14.1225 -1.72141 1.00294 -0.789939
189 4 1.14599 11.1798 5.93184 -0.0607521 -1.36249 0.398449
190 4 7.01219 9.72083 6.49126 -1.2618 -0.816999 -2.18193
191 4 0.825987 4.19703 3.72235 -0.620383 -0.199148 1.39863
192 4 6.42922 4.46403 4.07159 -1.38206 2.46917 -4.32653
ITEM: TIMESTEP
1000
ITEM: NUMBER OF ATOMS
192
ITEM: BOX BOUNDS pp pp pp
0.0000000000000000e+00 1.0621181999999999e+01
0.0000000000000000e+00 1.1374993999999999e+01
0.0000000000000000e+00 2.0176003000000001e+01
ITEM: ATOMS id type x y z fx fy fz
1 1 2.21644 6.55975 5.32994 -0.343977 1.00924 -0.325804
2 1 7.38466 6.44893 5.8121 -0.215106 -0.0137677 -0.413609
3 1 0.265333 1.00963 5.34593 0.200168 -0.46421 0.516834
4 1 4.75798 10.6664 2.88916 1.07731 -0.107953 -0.268513
5 1 2.75054 6.0092 17.9027 0.0451364 -0.556073 -0.334921
6 1 8.44194 5.53539 17.9835 0.118261 -0.376665 0.146877
7 1 5.1031 0.481218 12.767 -0.426835 0.342916 -0.0951094
8 1 10.43 9.88346 15.0297 -0.156684 0.795468 0.0857303
9 1 3.1082 5.15909 14.6854 0.0248456 -0.932527 -0.430476
10 1 8.55951 4.39958 15.613 -0.357906 0.294586 0.621636
11 1 5.30442 10.6728 15.2081 -0.539204 0.188353 0.0785471
12 1 10.4769 0.230159 17.6998 -0.446612 -0.062056 -0.0750189
13 1 2.04084 5.54679 2.17453 -0.244496 0.239424 0.0962172
14 1 6.95907 5.24144 1.80302 0.198891 -0.620151 0.861184
15 1 0.179981 11.2869 7.65693 0.242474 0.207349 0.481795
16 1 5.3586 1.17473 4.61472 1.46896 0.86728 0.807803
17 1 3.27789 1.49383 5.82073 -0.508341 0.679446 -0.519454
18 1 8.76933 2.2029 4.97122 0.0206776 -0.592666 -0.580172
19 1 3.83289 7.97788 5.40968 -0.0844575 -0.34732 0.375004
20 1 9.9021 7.72207 5.40907 -0.408872 -1.04318 -0.810309
21 1 1.9457 9.32101 15.0063 0.296295 0.00334087 0.222879
22 1 5.95764 8.82612 13.9231 0.304525 -0.267829 -0.380808
23 1 0.353805 4.3503 14.3597 1.862 0.915902 0.223062
24 1 6.19323 3.82071 15.0017 -0.443929 0.138364 0.389363
25 1 3.35067 10.5401 5.07481 -0.489452 0.648154 0.101249
26 1 10.4734 11.0301 2.28809 -0.555755 -0.313703 0.281959
27 1 2.33265 5.86877 8.30349 1.14146 -0.444623 -1.12125
28 1 7.84828 5.75712 8.22641 0.212485 0.642067 0.153319
29 1 10.4092 0.326498 12.6492 0.451232 0.178685 0.735413
30 1 7.33939 0.295191 14.473 0.275536 0.384551 0.564569
31 1 0.887228 6.46065 16.1169 -0.128092 -0.647211 0.194537
32 1 6.71238 6.2522 16.7113 -0.826546 1.19925 -0.392067
33 1 1.85945 0.225561 15.0531 -0.102762 0.736409 -1.35578
34 1 5.35895 11.4326 18.5961 -0.170199 0.0215085 0.0154461
35 1 3.08038 6.00863 12.0374 0.194748 -0.349732 0.532881
36 1 8.82581 5.58914 12.8042 -0.364426 0.0103983 -0.15526
37 1 5.77516 10.7329 7.36788 0.264993 -0.0644771 -0.624664
38 1 9.10642 10.9759 5.37616 -0.921967 -0.41477 -0.411034
39 1 4.52912 5.50502 4.69576 0.365602 -0.338184 0.47789
40 1 9.56637 5.29476 3.39343 0.0800679 -0.0644581 -0.0917114
41 1 2.44979 8.99308 2.78643 -0.299852 -0.595798 0.0717335
42 1 7.89367 8.42233 2.62806 0.121972 -0.263201 0.168428
43 1 9.88363 2.77342 7.16933 0.827495 -0.0975918 0.2188
44 1 5.4959 3.53245 7.22086 -0.438517 -0.290387 -0.401056
45 1 2.45607 2.43991 13.8161 0.455976 0.491263 -0.524765
46 1 8.18939 3.03752 13.439 0.0238728 -0.0609595 -0.391546
47 1 4.5106 8.92835 17.0226 0.132007 0.465447 0.364534
48 1 -0.13874 8.62819 17.4097 0.334741 0.578502 -0.102349
49 1 2.3368 3.24128 16.4258 0.737386 -1.17317 -0.160776
50 1 7.7616 2.5935 17.7216 -0.0258787 0.0245 -0.333152
51 1 6.28108 6.37778 13.6411 -0.0212332 0.240275 0.285502
52 1 1.09177 7.21945 13.2698 -0.397517 -0.0774561 0.165346
53 1 2.97629 9.29845 7.77916 0.349831 -0.670753 -0.332473
54 1 9.22189 9.10293 7.21115 -1.36758 0.0129411 0.228781
55 1 0.382203 2.01898 3.53747 -0.0269018 0.997513 -0.778618
56 1 3.6114 4.04146 3.11259 1.04571 -0.543806 0.76557
57 2 1.01949 9.87247 5.21514 -0.0368416 -4.22015 1.66485
58 2 6.06583 9.08517 4.9056 3.4976 -0.230469 2.33945
59 2 1.63911 3.94547 5.06537 -2.3829 -2.48215 0.505484
60 2 6.68667 4.24585 4.40386 -2.95335 1.43232 -0.752796
61 2 4.5033 1.81383 15.529 1.72007 -0.0682145 -4.58182
62 2 10.2113 1.98917 15.1726 -2.00595 4.20933 1.16984
63 2 3.74874 7.47779 14.9068 -0.66411 0.625239 -3.44713
64 2 8.95483 7.20616 15.2576 -2.83311 0.471373 -0.617054
65 2 1.16694 7.4922 19.8088 1.08813 2.04363 -2.03171
66 2 6.82392 7.60899 20.1682 -1.4341 1.08155 -0.530154
67 2 1.37354 1.8352 10.1437 1.16665 0.905012 -2.70043
68 2 6.75663 2.00527 10.3305 1.536 -1.35945 -2.12245
69 2 4.00104 3.61413 9.88561 -0.459364 -0.399781 0.381208
70 2 9.3814 3.67183 9.71152 0.864884 0.306359 -0.21649
71 2 3.8876 9.18883 0.128262 -0.376473 1.96134 -4.31201
72 2 9.32787 9.58665 19.7017 -3.04719 3.28607 1.28693
73 2 3.70507 3.36264 0.294715 0.11608 -1.22383 -0.24408
74 2 9.19723 3.48129 0.359393 -0.710834 -0.846878 -0.0285389
75 2 4.25881 9.786 10.155 -0.776301 -0.7839 2.09412
76 2 9.42251 9.73224 10.2314 2.37099 2.81066 -1.6733
77 2 1.4701 7.8782 10.2516 0.532652 4.55924 2.11213
78 2 6.75658 7.97227 10.8328 0.646845 0.983888 -0.275659
79 2 1.02088 1.62992 0.22687 2.1543 1.46931 0.31876
80 2 6.5961 1.77402 0.444267 -1.39631 0.979676 0.693952
81 3 4.80746 7.05373 2.58035 -0.621692 0.211867 -0.441441
82 3 -7.42741e-05 7.39144 2.04417 1.3184 -0.606799 -1.3047
83 3 3.9446 1.27118 8.25047 -1.11488 -0.380513 -0.170001
84 3 7.72173 1.26269 7.20995 -0.343461 -0.332738 0.344331
85 3 0.785275 4.09052 11.6114 1.85306 0.741375 2.51048
86 3 5.74247 4.42285 12.0676 0.219383 0.414866 0.729253
87 3 2.35641 11.3174 17.1421 0.758798 -0.546752 0.827456
88 3 7.37606 9.60717 16.7142 1.78141 -0.858831 -0.977158
89 3 0.168034 3.83598 17.7773 -1.49336 -0.269693 1.0098
90 3 5.53526 4.36073 18.1296 0.274287 -0.420804 -0.777194
91 3 2.40768 10.5594 12.5462 -1.50209 -0.260614 0.884855
92 3 7.56858 10.7522 12.092 0.89825 -0.0449288 0.0878838
93 3 5.16988 6.92597 8.31632 1.48153 0.0282439 1.01003
94 3 10.3607 7.14343 7.97256 -0.943059 -0.994349 -0.415447
95 3 2.49783 0.592993 2.70945 0.34982 0.764957 0.237381
96 3 7.86579 0.232626 2.92755 1.00054 0.406919 0.561296
97 4 2.99995 6.80407 3.3263 0.45766 -0.0287484 0.659919
98 4 9.45829 7.53345 3.38731 -1.36458 0.25978 2.11117
99 4 5.21695 1.47216 6.81522 0.822259 -0.0741715 -0.459924
100 4 9.58484 0.839448 6.66999 -1.08431 1.40107 -0.188941
101 4 1.97155 4.34446 13.313 -1.05646 0.307371 -1.43043
102 4 7.10844 4.78806 13.4553 0.685511 -1.54077 -0.110224
103 4 1.00117 10.0125 16.7698 -0.219815 0.384417 -0.533712
104 4 5.82258 10.3681 17.3148 -1.38928 -0.208189 -0.977971
105 4 1.24752 4.56836 16.4613 1.74099 2.32251 -1.35721
106 4 7.11698 4.6001 16.8988 -0.801549 -1.4584 0.589161
107 4 0.900409 10.6492 13.7848 0.710087 -0.905136 -0.10956