LAMMPS (2 Aug 2023 - Update 3)
  using 1 OpenMP thread(s) per MPI task
#--------------------------- Simulation variables -----------------------------#

variable          T equal 1000
variable          output      equal 100
variable          dumpstep    equal 500
variable          runstep     equal 400000
variable          eqstep      equal 1000
variable          nrestart    equal 50000

#---------------------------- Atomic setup ------------------------------------#
units            metal
atom_style       atomic
boundary         p p p
read_data        ./Ef_0000_HZnAsO_LiPPdO_486.data
Reading data file ...
  orthogonal box = (0 0 0) to (10.621182 11.374994 20.176003)
  1 by 1 by 1 MPI processor grid
  reading atoms ...
  192 atoms
  read_data CPU = 0.002 seconds

pair_style       e3gnn
PairE3GNN using device : CUDA
pair_coeff       * * ./deployed_serial.pt Li P Pd O
Chemical specie 'Li' is assigned to type 1
Chemical specie 'P' is assigned to type 2
Chemical specie 'Pd' is assigned to type 3
Chemical specie 'O' is assigned to type 4
from sevenn version '0.10.1' single precision model trained at 2024-11-27 is loaded

timestep         0.001

group            Li    type 1
56 atoms in group Li
group            P    type 2
24 atoms in group P
group            Pd    type 3
16 atoms in group Pd
group            O     type 4
96 atoms in group O

#----------------------------- Run simulation ---------------------------------#
thermo           ${output}
thermo           100
thermo_style     custom step time tpcpu pe ke etotal vol press temp

fix              f1 all nvt temp ${T} ${T} 0.1
fix              f1 all nvt temp 1000 ${T} 0.1
fix              f1 all nvt temp 1000 1000 0.1
fix              comfix all momentum 1 linear 1 1 1
velocity         all create ${T} 598173 dist gaussian mom yes
velocity         all create 1000 598173 dist gaussian mom yes

# MSD computations
compute          Li_msd1 Li msd
fix              fmsd1   Li ave/time 500 1 500 c_Li_msd1[1] c_Li_msd1[2] c_Li_msd1[3] c_Li_msd1[4] file 01_msd_output.txt

compute          Li_msd2 Li msd com yes
fix              fmsd2 Li ave/time 500 1 500 c_Li_msd2[1] c_Li_msd2[2] c_Li_msd2[3] c_Li_msd2[4] file 02_msd_output.txt

compute          Li_msd3 Li msd average yes
fix              fmsd3 Li ave/time 500 1 500 c_Li_msd3[1] c_Li_msd3[2] c_Li_msd3[3] c_Li_msd3[4] file 03_msd_output.txt

compute          Li_msd4 Li msd com yes average yes
fix              fmsd4 Li ave/time 500 1 500 c_Li_msd4[1] c_Li_msd4[2] c_Li_msd4[3] c_Li_msd4[4] file 04_msd_output.txt

compute          B_msd   P msd
fix              fmsd5   P ave/time 500 1 500 c_B_msd[1] c_B_msd[2] c_B_msd[3] c_B_msd[4] file P_msd_output.txt

compute          C_msd   Pd msd
fix              fmsd6   Pd ave/time 500 1 500 c_C_msd[1] c_C_msd[2] c_C_msd[3] c_C_msd[4] file Pd_msd_output.txt

compute          O_msd   O msd
fix              fmsd7   O ave/time 500 1 500 c_O_msd[1] c_O_msd[2] c_O_msd[3] c_O_msd[4] file O_msd_output.txt

shell           mkdir restart_bins
restart         ${nrestart} ./restart_bins/restart.*.bin
restart         50000 ./restart_bins/restart.*.bin

# Equilibration
dump            mydump1 all custom ${dumpstep} eqdump.traj id type x y z fx fy fz
dump            mydump1 all custom 500 eqdump.traj id type x y z fx fy fz
dump_modify     mydump1 sort id
run             ${eqstep}
run             1000
Generated 0 of 6 mixed pair_coeff terms from geometric mixing rule
Neighbor list info ...
  update: every = 1 steps, delay = 0 steps, check = yes
  max neighbors/atom: 2000, page size: 100000
  master list distance cutoff = 7
  ghost atom cutoff = 7
  binsize = 3.5, bins = 4 4 6
  1 neighbor lists, perpetual/occasional/extra = 1 0 0
  (1) pair e3gnn, perpetual
      attributes: full, newton on
      pair build: full/bin/atomonly
      stencil: full/bin/3d
      bin: standard
Per MPI rank memory allocation (min/avg/max) = 5.727 | 5.727 | 5.727 Mbytes
   Step          Time          T/CPU          PotEng         KinEng         TotEng         Volume         Press           Temp     
         0   0              0             -1145.9131      24.688688     -1121.2244      2437.5816      10821.26       1000         
       100   0.1            0.010076921   -1131.8049      13.614348     -1118.1906      2437.5816      9888.4475      551.44073    
       200   0.2            0.010155127   -1129.7676      16.714995     -1113.0526      2437.5816      18927.612      677.03052    
       300   0.3            0.010059191   -1127.9586      21.250836     -1106.7078      2437.5816      10805.724      860.75193    
       400   0.4            0.010036851   -1124.4747      23.745126     -1100.7296      2437.5816     -1624.4613      961.78163    
       500   0.5            0.011178498   -1123.4756      26.606634     -1096.869       2437.5816     -3599.3257      1077.6852    
       600   0.6            0.011968452   -1124.7756      27.553947     -1097.2217      2437.5816      2625.593       1116.0556    
       700   0.7            0.012092173   -1123.8625      23.760186     -1100.1024      2437.5816      2755.4539      962.39161    
       800   0.8            0.011934696   -1124.8245      23.977707     -1100.8468      2437.5816      1901.1899      971.20216    
       900   0.9            0.012013984   -1125.1643      25.825858     -1099.3384      2437.5816      8895.2461      1046.0604    
      1000   1              0.01192902    -1123.291       25.462198     -1097.8288      2437.5816      8377.6651      1031.3306    
Loop time of 90.3327 on 1 procs for 1000 steps with 192 atoms

Performance: 0.956 ns/day, 25.092 hours/ns, 11.070 timesteps/s, 2.125 katom-step/s
99.8% CPU use with 1 MPI tasks x 1 OpenMP threads

MPI task timing breakdown:
Section |  min time  |  avg time  |  max time  |%varavg| %total
---------------------------------------------------------------
Pair    | 90.224     | 90.224     | 90.224     |   0.0 | 99.88
Neigh   | 0.054141   | 0.054141   | 0.054141   |   0.0 |  0.06
Comm    | 0.024023   | 0.024023   | 0.024023   |   0.0 |  0.03
Output  | 0.0026457  | 0.0026457  | 0.0026457  |   0.0 |  0.00
Modify  | 0.021198   | 0.021198   | 0.021198   |   0.0 |  0.02
Other   |            | 0.007038   |            |       |  0.01

Nlocal:            192 ave         192 max         192 min
Histogram: 1 0 0 0 0 0 0 0 0 0
Nghost:           1522 ave        1522 max        1522 min
Histogram: 1 0 0 0 0 0 0 0 0 0
Neighs:              0 ave           0 max           0 min
Histogram: 1 0 0 0 0 0 0 0 0 0
FullNghs:        21472 ave       21472 max       21472 min
Histogram: 1 0 0 0 0 0 0 0 0 0

Total # of neighbors = 21472
Ave neighs/atom = 111.83333
Neighbor list builds = 27
Dangerous builds = 0
undump          mydump1

# Main
dump            mydump2 all custom ${dumpstep} dump.traj id type x y z fx fy fz
dump            mydump2 all custom 500 dump.traj id type x y z fx fy fz
dump_modify     mydump2 sort id
run             ${runstep}
run             400000
Generated 0 of 6 mixed pair_coeff terms from geometric mixing rule
Per MPI rank memory allocation (min/avg/max) = 5.727 | 5.727 | 5.727 Mbytes
   Step          Time          T/CPU          PotEng         KinEng         TotEng         Volume         Press           Temp     
      1000   1              0             -1123.291       25.462198     -1097.8288      2437.5816      8377.6678      1031.3306    
      1100   1.1            0.011559253   -1123.4255      24.829761     -1098.5958      2437.5816      9580.2651      1005.7141    
      1200   1.2            0.011978247   -1125.2992      24.851345     -1100.4478      2437.5816      17513.257      1006.5883    
      1300   1.3            0.012068115   -1124.843       22.958422     -1101.8846      2437.5816     -2908.1663      929.91668    
      1400   1.4            0.011282241   -1126.2611      23.155672     -1103.1054      2437.5816      19946.724      937.90613    
      1500   1.5            0.010862148   -1126.7068      24.750237     -1101.9565      2437.5816      20836.442      1002.493     
      1600   1.6            0.011813874   -1124.0743      24.953807     -1099.1205      2437.5816      33618.98       1010.7385    
      1700   1.7            0.012063064   -1124.4763      26.132445     -1098.3439      2437.5816      25601.608      1058.4785    
      1800   1.8            0.011932254   -1125.115       25.661861     -1099.4531      2437.5816      3639.6438      1039.4178    
      1900   1.9            0.012049706   -1126.353       25.384697     -1100.9683      2437.5816      11264.232      1028.1914    
      2000   2              0.011372462   -1126.8309      21.25904      -1105.5719      2437.5816      20880.51       861.08426    
      2100   2.1            0.01203393    -1128.0547      22.891844     -1105.1628      2437.5816      10184.289      927.21994    
      2200   2.2            0.012050404   -1124.8093      22.499998     -1102.3093      2437.5816      17774.033      911.34849    
      2300   2.3            0.010428395   -1122.9995      23.134763     -1099.8647      2437.5816      5872.7542      937.05923    
      2400   2.4            0.01177354    -1125.0381      26.256367     -1098.7817      2437.5816      28303.331      1063.4979    
      2500   2.5            0.01201387    -1125.1555      24.102712     -1101.0528      2437.5816      24911.587      976.26543    
      2600   2.6            0.012026736   -1126.2878      23.449646     -1102.8382      2437.5816      25337.348      949.81338    
      2700   2.7            0.012027325   -1126.7184      25.138015     -1101.5804      2437.5816      8864.7985      1018.1997    
      2800   2.8            0.012055768   -1123.4745      26.784043     -1096.6904      2437.5816      25371.677      1084.8711    
      2900   2.9            0.012087669   -1121.1338      24.703859     -1096.4299      2437.5816      20544.655      1000.6145    
      3000   3              0.011942102   -1125.1837      26.627689     -1098.556       2437.5816      27123.002      1078.538     
      3100   3.1            0.01207489    -1126.4766      24.950157     -1101.5264      2437.5816      25102.926      1010.5906    
      3200   3.2            0.012033681   -1125.9521      23.764761     -1102.1874      2437.5816      15313.56       962.57692    
      3300   3.3            0.012062629   -1125.0051      23.221224     -1101.7839      2437.5816      10001.2        940.5613     
      3400   3.4            0.012100805   -1124.3927      25.275912     -1099.1168      2437.5816      18893.07       1023.7852    
      3500   3.5            0.012015889   -1123.093       26.092091     -1097.0009      2437.5816      5262.8297      1056.844     
      3600   3.6            0.012060801   -1124.084       25.236019     -1098.848       2437.5816      13791.993      1022.1693    
      3700   3.7            0.012169864   -1127.3242      24.883366     -1102.4409      2437.5816      9073.8853      1007.8853    
      3800   3.8            0.012205387   -1125.9774      23.43662      -1102.5408      2437.5816      12792.156      949.28577    
      3900   3.9            0.012299756   -1125.1803      24.073362     -1101.1069      2437.5816      14858.078      975.0766     
      4000   4              0.012101092   -1126.1927      27.469223     -1098.7235      2437.5816      18522.347      1112.6238    
      4100   4.1            0.01225904    -1124.2891      27.633747     -1096.6553      2437.5816      9810.6434      1119.2878    
      4200   4.2            0.012081161   -1122.422       28.843727     -1093.5783      2437.5816      22811.329      1168.2973    
      4300   4.3            0.012046616   -1124.6987      27.973133     -1096.7256      2437.5816      13274.765      1133.0344    
      4400   4.4            0.012176161   -1125.0996      25.628584     -1099.471       2437.5816      7795.9089      1038.0699    
      4500   4.5            0.012198234   -1126.9103      25.633515     -1101.2768      2437.5816      10428.793      1038.2696    
      4600   4.6            0.01215262    -1127.0334      24.108364     -1102.9251      2437.5816      28437.607      976.49436    
      4700   4.7            0.012105875   -1125.6818      23.159146     -1102.5226      2437.5816      19343.717      938.04687    
      4800   4.8            0.012030327   -1124.7876      26.182246     -1098.6054      2437.5816      29479.628      1060.4957    
      4900   4.9            0.012052265   -1123.7371      25.746064     -1097.991       2437.5816      21315.449      1042.8284    
      5000   5              0.012110697   -1126.0878      25.548298     -1100.5395      2437.5816      14097.767      1034.818     
      5100   5.1            0.012049148   -1124.6019      22.6807       -1101.9212      2437.5816      15616.45       918.66772    
      5200   5.2            0.012013939   -1123.2566      21.944235     -1101.3124      2437.5816      22493.332      888.83762    
      5300   5.3            0.011985672   -1125.6144      25.492855     -1100.1215      2437.5816      1608.6304      1032.5723    
      5400   5.4            0.011979636   -1125.1611      28.012893     -1097.1482      2437.5816      18819.795      1134.6449    
      5500   5.5            0.011725346   -1127.4202      28.741845     -1098.6783      2437.5816      17575.565      1164.1706    
      5600   5.6            0.010894357   -1128.0669      25.234263     -1102.8326      2437.5816      19272.909      1022.0982    
      5700   5.7            0.011871455   -1128.4601      23.431498     -1105.0286      2437.5816      16538.269      949.0783     
      5800   5.8            0.012055125   -1127.821       21.599014     -1106.222       2437.5816      20872.841      874.8547     
      5900   5.9            0.012059977   -1126.8613      21.850108     -1105.0112      2437.5816      23619.686      885.02508    
      6000   6              0.01206796    -1127.7455      26.362042     -1101.3834      2437.5816      18264.889      1067.7782    
      6100   6.1            0.012191358   -1126.257       25.130137     -1101.1268      2437.5816      8384.286       1017.8806    
      6200   6.2            0.012098047   -1125.6228      23.250484     -1102.3723      2437.5816      18316.452      941.74645    
      6300   6.3            0.012073245   -1130.4868      26.292015     -1104.1948      2437.5816      25358.004      1064.9418    
      6400   6.4            0.012111721   -1129.5708      22.856765     -1106.714       2437.5816      12838.226      925.79909    
      6500   6.5            0.012105868   -1131.0205      21.08232      -1109.9382      2437.5816      11629.693      853.9263     
      6600   6.6            0.012052086   -1133.5055      22.213813     -1111.2917      2437.5816      9548.1322      899.75673    
      6700   6.7            0.012084969   -1132.4785      24.163794     -1108.3147      2437.5816      24345.194      978.7395     
      6800   6.8            0.012002441   -1131.2412      26.299973     -1104.9412      2437.5816      15269.318      1065.2641    
      6900   6.9            0.01208229    -1127.5872      24.418954     -1103.1682      2437.5816      10347.981      989.0746     
      7000   7              0.012050183   -1127.9116      24.726814     -1103.1848      2437.5816      12879.349      1001.5443    
      7100   7.1            0.012111114   -1127.4078      23.142378     -1104.2655      2437.5816      27264.043      937.36768    
      7200   7.2            0.012086762   -1128.7052      23.492305     -1105.2129      2437.5816      16761.078      951.54128    
      7300   7.3            0.01223392    -1130.2073      25.620283     -1104.587       2437.5816      25918.831      1037.7337    
      7400   7.4            0.012105997   -1129.0601      24.780809     -1104.2792      2437.5816      13652.769      1003.7313    
      7500   7.5            0.012104946   -1129.3948      24.767484     -1104.6273      2437.5816      18434.807      1003.1916    
      7600   7.6            0.012165809   -1128.2699      23.735975     -1104.5339      2437.5816      23801.197      961.41097    
      7700   7.7            0.012203161   -1126.9082      23.997767     -1102.9104      2437.5816      10580.321      972.0147     
      7800   7.8            0.012181014   -1128.5187      27.357222     -1101.1615      2437.5816      9196.4436      1108.0873    
      7900   7.9            0.012143579   -1130.9229      28.213751     -1102.7091      2437.5816      13383.161      1142.7805    
      8000   8              0.012066003   -1132.2357      25.522706     -1106.713       2437.5816      17466.685      1033.7814    
      8100   8.1            0.010147731   -1129.6002      22.700007     -1106.9002      2437.5816      16496.157      919.44972    
      8200   8.2            0.010142476   -1128.7654      24.039406     -1104.726       2437.5816      26257.148      973.70126    
      8300   8.3            0.010385094   -1127.8418      25.290538     -1102.5513      2437.5816      11202.891      1024.3776    
      8400   8.4            0.012221281   -1128.5791      25.957197     -1102.6219      2437.5816      670.69864      1051.3802    
      8500   8.5            0.012129735   -1131.5845      26.596288     -1104.9882      2437.5816      5935.1212      1077.2662    
      8600   8.6            0.012160777   -1132.8572      26.635807     -1106.2214      2437.5816      4686.2332      1078.8669    
      8700   8.7            0.01214105    -1131.5468      25.040598     -1106.5062      2437.5816      22777.397      1014.2539    
      8800   8.8            0.012201403   -1131.7944      24.406571     -1107.3879      2437.5816      29389.277      988.57302    
      8900   8.9            0.012159373   -1133.1841      23.525356     -1109.6587      2437.5816      9153.4816      952.87997    
      9000   9              0.012113944   -1134.9258      23.650888     -1111.2749      2437.5816      12852.491      957.96456    
      9100   9.1            0.012065475   -1132.3367      22.669162     -1109.6675      2437.5816      29106.37       918.20038    
      9200   9.2            0.012119824   -1133.7246      28.047913     -1105.6767      2437.5816      3717.5227      1136.0633    
      9300   9.3            0.01210982    -1129.7031      24.316549     -1105.3866      2437.5816      16822.114      984.92674    
      9400   9.4            0.012093372   -1130.5662      25.068291     -1105.4979      2437.5816      17329.413      1015.3756    
      9500   9.5            0.012150384   -1130.0588      24.17137      -1105.8875      2437.5816      20686.037      979.04636    
      9600   9.6            0.012138526   -1132.8459      27.409792     -1105.4362      2437.5816      16865.735      1110.2166    
      9700   9.7            0.011984712   -1131.8728      23.687201     -1108.1856      2437.5816      27465.559      959.43541    
      9800   9.8            0.012077309   -1135.5428      25.257431     -1110.2854      2437.5816      17952.991      1023.0366    
      9900   9.9            0.012116072   -1135.6918      25.113459     -1110.5783      2437.5816      21416.256      1017.2051    
     10000   10             0.012086486   -1133.7004      25.494205     -1108.2062      2437.5816      18537.468      1032.627     
     10100   10.1           0.010878994   -1134.3782      28.731834     -1105.6463      2437.5816      23818.508      1163.7651    
     10200   10.2           0.011025307   -1134.2875      24.312489     -1109.975       2437.5816      33923.037      984.76229    
     10300   10.3           0.012005864   -1134.2123      22.344385     -1111.8679      2437.5816      16475.813      905.04545    
     10400   10.4           0.012123455   -1135.9459      23.961569     -1111.9844      2437.5816      20347.99       970.54851    
     10500   10.5           0.01215123    -1135.2888      23.888813     -1111.4         2437.5816      3749.6748      967.60157    
     10600   10.6           0.012154484   -1133.9611      24.644976     -1109.3161      2437.5816      7962.9768      998.22947    
     10700   10.7           0.012154757   -1133.0378      26.255692     -1106.7821      2437.5816      23111.201      1063.4706    
     10800   10.8           0.011996765   -1133.9943      26.876704     -1107.1176      2437.5816      13021.246      1088.6243    
     10900   10.9           0.012133964   -1135.1227      23.503215     -1111.6195      2437.5816      13568.814      951.98315    
     11000   11             0.012124832   -1135.238       23.383827     -1111.8542      2437.5816      20934.372      947.14744    
     11100   11.1           0.011880582   -1136.6707      26.094944     -1110.5757      2437.5816      34938.644      1056.9595    
     11200   11.2           0.010907048   -1134.9585      24.649488     -1110.309       2437.5816      7759.5683      998.41224    
     11300   11.3           0.010937986   -1137.6125      25.841886     -1111.7707      2437.5816      16939.62       1046.7096    
     11400   11.4           0.012026042   -1137.7607      23.108053     -1114.6527      2437.5816      15305.869      935.97737    
     11500   11.5           0.012109932   -1139.0314      24.48233      -1114.549       2437.5816      28642.04       991.64163    
     11600   11.6           0.012084815   -1138.6937      26.064647     -1112.6291      2437.5816      10579.744      1055.7324    
     11700   11.7           0.01210788    -1137.2303      27.647785     -1109.5826      2437.5816      8048.2337      1119.8564    
     11800   11.8           0.012114997   -1135.1455      26.11465      -1109.0309      2437.5816      1513.6321      1057.7577    
     11900   11.9           0.012112912   -1138.722       25.075708     -1113.6463      2437.5816      17317.875      1015.676     
     12000   12             0.012135171   -1138.8579      23.318351     -1115.5396      2437.5816      15274.466      944.49538    
     12100   12.1           0.012047591   -1141.3723      25.446944     -1115.9254      2437.5816      15913.522      1030.7127    
     12200   12.2           0.0121545     -1139.2035      24.361503     -1114.842       2437.5816      5155.0037      986.74757    
     12300   12.3           0.01212019    -1137.1425      24.972587     -1112.1699      2437.5816      18434.68       1011.4992    
     12400   12.4           0.012117258   -1137.7769      27.355833     -1110.421       2437.5816      27875.36       1108.0311    
     12500   12.5           0.012140415   -1138.1255      25.297141     -1112.8283      2437.5816     -758.10611      1024.645     
     12600   12.6           0.012189173   -1138.7405      23.213036     -1115.5274      2437.5816      5262.0023      940.22964    
     12700   12.7           0.011634399   -1140.3059      25.084595     -1115.2213      2437.5816      13985.451      1016.036     
     12800   12.8           0.011737468   -1140.1002      25.803173     -1114.297       2437.5816      22236.305      1045.1415    
     12900   12.9           0.012068355   -1140.1708      25.188514     -1114.9823      2437.5816      9282.8308      1020.2451    
     13000   13             0.012114574   -1140.7061      23.419096     -1117.287       2437.5816      15300.409      948.57596    
     13100   13.1           0.012167597   -1141.2233      23.863519     -1117.3597      2437.5816      22382.332      966.57706    
     13200   13.2           0.011992415   -1138.8667      25.828493     -1113.0382      2437.5816      7778.6245      1046.1671    
     13300   13.3           0.012079336   -1139.8644      27.117935     -1112.7464      2437.5816      26926.6        1098.3952    
     13400   13.4           0.011221442   -1140.089       24.645417     -1115.4436      2437.5816      16425.204      998.24733    
     13500   13.5           0.011795267   -1142.3049      25.054111     -1117.2508      2437.5816      3034.5967      1014.8012    
     13600   13.6           0.010419082   -1143.2139      26.322768     -1116.8911      2437.5816      18486.044      1066.1874    
     13700   13.7           0.010665828   -1141.1328      25.751882     -1115.3809      2437.5816      16181.823      1043.064     
     13800   13.8           0.012132288   -1138.2242      26.696199     -1111.528       2437.5816      30153.724      1081.313     
     13900   13.9           0.01213762    -1136.9717      25.531759     -1111.4399      2437.5816      22177.617      1034.1481    
     14000   14             0.012136151   -1140.6882      25.177647     -1115.5106      2437.5816      15834.003      1019.805     
     14100   14.1           0.012133529   -1141.124       24.211033     -1116.913       2437.5816      12356.739      980.65288    
     14200   14.2           0.012103982   -1139.3101      22.577774     -1116.7323      2437.5816      11649.684      914.49876    
     14300   14.3           0.012144688   -1142.1819      27.100245     -1115.0816      2437.5816      10315.501      1097.6787    
     14400   14.4           0.012040552   -1139.9987      25.197447     -1114.8012      2437.5816      8737.082       1020.607     
     14500   14.5           0.012147501   -1139.5034      23.972045     -1115.5314      2437.5816      15640.758      970.97284    
     14600   14.6           0.012124808   -1139.7441      23.155499     -1116.5886      2437.5816      3310.5975      937.89912    
     14700   14.7           0.012110596   -1143.8678      26.823741     -1117.0441      2437.5816      14320.138      1086.479     
     14800   14.8           0.012101266   -1142.1973      23.99325      -1118.204       2437.5816      14737.329      971.83173    
     14900   14.9           0.012126795   -1143.4883      23.899741     -1119.5885      2437.5816      9661.0689      968.0442     
     15000   15             0.012153979   -1143.0785      22.699541     -1120.379       2437.5816      9619.5645      919.43085    
     15100   15.1           0.012019537   -1144.3035      26.312635     -1117.9908      2437.5816      21283.915      1065.777     
     15200   15.2           0.012123565   -1140.6536      24.873316     -1115.7802      2437.5816      10503.67       1007.4782    
     15300   15.3           0.012104038   -1140.1277      24.591066     -1115.5366      2437.5816      14839.429      996.04589    
     15400   15.4           0.012082074   -1141.8875      27.51291      -1114.3745      2437.5816      2810.9387      1114.3934    
     15500   15.5           0.012132295   -1140.5139      28.098658     -1112.4153      2437.5816      20575.772      1138.1187    
     15600   15.6           0.012137212   -1139.4788      23.745306     -1115.7335      2437.5816      12732.76       961.78891    
     15700   15.7           0.012009465   -1142.1675      24.594868     -1117.5726      2437.5816      24031.262      996.1999     
     15800   15.8           0.012113048   -1140.5272      22.500378     -1118.0268      2437.5816      22458.321      911.36387    
     15900   15.9           0.012132176   -1141.489       24.793043     -1116.696       2437.5816      9223.0911      1004.2268    
     16000   16             0.012119409   -1139.3999      26.292557     -1113.1073      2437.5816      13038.238      1064.9637    
     16100   16.1           0.01033928    -1140.2786      26.830772     -1113.4478      2437.5816      16539.655      1086.7638    
     16200   16.2           0.010564849   -1142.4399      26.91389      -1115.5261      2437.5816      11380.288      1090.1304    
     16300   16.3           0.012110512   -1140.2632      23.259669     -1117.0035      2437.5816      22400.795      942.11847    
     16400   16.4           0.012119759   -1141.7329      24.321544     -1117.4114      2437.5816      21081.495      985.12909    
     16500   16.5           0.012120685   -1142.9856      25.696227     -1117.2894      2437.5816     -6945.9847      1040.8097    
     16600   16.6           0.012134952   -1139.7964      24.298232     -1115.4982      2437.5816      16114.752      984.18483    
     16700   16.7           0.012109792   -1138.0013      25.518545     -1112.4828      2437.5816      13104.827      1033.6128    
     16800   16.8           0.012003055   -1138.8079      24.972815     -1113.835       2437.5816      18971.455      1011.5084    
     16900   16.9           0.01210461    -1140.4197      24.577198     -1115.8425      2437.5816      22561.745      995.48416    
     17000   17             0.012128322   -1140.5974      24.019976     -1116.5774      2437.5816      12384.268      972.91427    
     17100   17.1           0.012135516   -1141.8046      25.065645     -1116.7389      2437.5816      12299.199      1015.2684    
     17200   17.2           0.012144606   -1140.6696      24.515203     -1116.1544      2437.5816      26484.531      992.97313    
     17300   17.3           0.012011854   -1139.4492      26.760294     -1112.6889      2437.5816      18867.339      1083.9091    
     17400   17.4           0.012131217   -1139.8809      25.41006      -1114.4708      2437.5816      26582.887      1029.2187    
     17500   17.5           0.012149184   -1142.6304      25.702443     -1116.9279      2437.5816      17483.498      1041.0615    
     17600   17.6           0.012152265   -1141.6576      23.436458     -1118.2211      2437.5816      18545.54       949.27919    
     17700   17.7           0.012146239   -1142.6145      24.64603      -1117.9685      2437.5816      18374.752      998.27217    
     17800   17.8           0.012142557   -1142.2806      25.972041     -1116.3086      2437.5816      14734.735      1051.9814    
     17900   17.9           0.012095455   -1141.314       27.278905     -1114.0351      2437.5816      19805.005      1104.9152    
     18000   18             0.012168578   -1140.0195      29.369192     -1110.6503      2437.5816      16509.761      1189.5809    
     18100   18.1           0.01220641    -1140.1848      26.657455     -1113.5274      2437.5816      26939.201      1079.7437    
     18200   18.2           0.012125461   -1140.9307      24.281334     -1116.6493      2437.5816      13924.247      983.50039    
     18300   18.3           0.01194088    -1141.9287      24.557142     -1117.3716      2437.5816      15099.157      994.67181    
     18400   18.4           0.010054486   -1141.6259      23.367978     -1118.2579      2437.5816      8029.2627      946.50549    
     18500   18.5           0.010225147   -1141.9324      22.857298     -1119.0751      2437.5816      25742.412      925.82068    
     18600   18.6           0.010183095   -1141.7281      23.421393     -1118.3068      2437.5816      17488.766      948.66902    
     18700   18.7           0.0101991     -1142.4547      26.256057     -1116.1987      2437.5816      24698.206      1063.4853    
     18800   18.8           0.01016784    -1142.6233      27.552237     -1115.0711      2437.5816      7200.2918      1115.9863    
     18900   18.9           0.01022687    -1143.2708      25.035505     -1118.2352      2437.5816      11406.385      1014.0476    
     19000   19             0.010246429   -1144.6381      24.592372     -1120.0457      2437.5816      17633.807      996.09878    
     19100   19.1           0.010184567   -1143.9614      23.655591     -1120.3058      2437.5816      10821.997      958.15506    
     19200   19.2           0.01195158    -1141.8777      23.115317     -1118.7624      2437.5816      18162.984      936.27159    
     19300   19.3           0.012163006   -1142.321       26.919544     -1115.4015      2437.5816      17039.33       1090.3594    
     19400   19.4           0.012026106   -1140.6399      24.697825     -1115.9421      2437.5816      20540.459      1000.3701    
     19500   19.5           0.012169592   -1141.6865      24.705395     -1116.9811      2437.5816      33995.91       1000.6767    
     19600   19.6           0.012178577   -1141.3646      22.312994     -1119.0516      2437.5816      16244.781      903.77398    
     19700   19.7           0.012137081   -1143.8123      23.587529     -1120.2247      2437.5816      21384.764      955.39826    
     19800   19.8           0.012082427   -1141.2742      21.893182     -1119.381       2437.5816      9658.0526      886.76979    
     19900   19.9           0.012108334   -1140.2589      24.59263      -1115.6663      2437.5816      11121.997      996.10923    
     20000   20             0.012184356   -1140.2109      26.497119     -1113.7138      2437.5816      23158.027      1073.2494    
     20100   20.1           0.012162238   -1139.2478      24.451206     -1114.7966      2437.5816      24871.141      990.38096    
     20200   20.2           0.012181709   -1141.4598      23.686823     -1117.773       2437.5816      24067.443      959.4201     
     20300   20.3           0.012189981   -1143.8899      23.924614     -1119.9653      2437.5816      1923.2481      969.05168    
     20400   20.4           0.012221096   -1145.037       25.128937     -1119.9081      2437.5816     -680.0991       1017.832     
     20500   20.5           0.012090276   -1144.8303      25.882516     -1118.9478      2437.5816      30279.7        1048.3553    
     20600   20.6           0.012154051   -1142.7997      27.417091     -1115.3826      2437.5816      9123.0306      1110.5123    
     20700   20.7           0.012166997   -1142.1289      28.43856      -1113.6903      2437.5816      3934.0609      1151.8863    
     20800   20.8           0.012109744   -1142.2059      26.46745      -1115.7385      2437.5816      15227.735      1072.0477    
     20900   20.9           0.012141149   -1142.2932      24.194326     -1118.0989      2437.5816      17830.434      979.9762     
     21000   21             0.012025141   -1142.282       23.464923     -1118.8171      2437.5816      14556.435      950.43217    
     21100   21.1           0.01213731    -1143.2266      24.979775     -1118.2468      2437.5816     -983.09273      1011.7903    
     21200   21.2           0.012185386   -1140.5612      25.335576     -1115.2256      2437.5816      9287.9751      1026.2018    
     21300   21.3           0.012142892   -1138.7322      26.211742     -1112.5204      2437.5816      20454.914      1061.6904    
     21400   21.4           0.0121452     -1140.6873      27.856688     -1112.8306      2437.5816      20057.971      1128.3179    
     21500   21.5           0.012175481   -1141.5676      26.484611     -1115.083       2437.5816      10281.562      1072.7428    
     21600   21.6           0.012081339   -1141.9799      25.544457     -1116.4354      2437.5816      9804.2159      1034.6624    
     21700   21.7           0.012146941   -1141.343       24.072218     -1117.2708      2437.5816      14791.5        975.03027    
     21800   21.8           0.0121303     -1141.4056      24.807784     -1116.5979      2437.5816      10662.456      1004.8239    
     21900   21.9           0.012141549   -1139.4517      26.061189     -1113.3905      2437.5816      2372.1374      1055.5923    
     22000   22             0.011922036   -1140.0349      27.759941     -1112.275       2437.5816      14224.341      1124.3992    
     22100   22.1           0.012249431   -1142.8611      26.866191     -1115.9949      2437.5816      4222.0935      1088.1984    
     22200   22.2           0.012037034   -1142.8628      25.095816     -1117.767       2437.5816      15679.229      1016.4905    
     22300   22.3           0.012237639   -1143.1404      25.103954     -1118.0364      2437.5816      34230.97       1016.8201    
     22400   22.4           0.012126145   -1142.2754      24.829079     -1117.4463      2437.5816      9760.6329      1005.6865    
     22500   22.5           0.012119296   -1140.2046      25.023034     -1115.1816      2437.5816      18535.535      1013.5425    
     22600   22.6           0.010688721   -1139.7844      26.742562     -1113.0419      2437.5816      20693.957      1083.1909    
     22700   22.7           0.011064354   -1138.5161      24.671681     -1113.8444      2437.5816      12704.526      999.31117    
     22800   22.8           0.012135528   -1141.1981      22.952089     -1118.246       2437.5816      25626.108      929.66015    
     22900   22.9           0.011979269   -1142.4171      23.815941     -1118.6012      2437.5816      22518.933      964.64994    
     23000   23             0.010418141   -1139.3345      22.417351     -1116.9171      2437.5816      11823.63       908.00091    
     23100   23.1           0.010211451   -1139.9421      24.812305     -1115.1298      2437.5816      14133.235      1005.0071    
     23200   23.2           0.011421802   -1141.667       26.04217      -1115.6248      2437.5816      22063.737      1054.822     
     23300   23.3           0.012150274   -1143.8615      24.470174     -1119.3913      2437.5816      11825.227      991.14925    
     23400   23.4           0.011989134   -1143.8936      23.007464     -1120.8861      2437.5816      7371.5979      931.9031     
     23500   23.5           0.012152993   -1142.4552      23.69775      -1118.7575      2437.5816      11515.627      959.86268    
     23600   23.6           0.012133998   -1142.1646      25.632327     -1116.5322      2437.5816      30965.823      1038.2215    
     23700   23.7           0.012206354   -1142.1263      25.994435     -1116.1319      2437.5816      15555.723      1052.8885    
     23800   23.8           0.011061189   -1140.7361      24.182461     -1116.5536      2437.5816      15076.726      979.4956     
     23900   23.9           0.011662002   -1144.0371      25.785231     -1118.2519      2437.5816      21941.6        1044.4148    
     24000   24             0.012100565   -1145.2971      23.440948     -1121.8562      2437.5816      9792.0151      949.46107    
     24100   24.1           0.012275882   -1144.3232      23.629785     -1120.6935      2437.5816      19559.208      957.10978    
     24200   24.2           0.0123438     -1143.4434      25.438781     -1118.0046      2437.5816      20154.294      1030.3821    
     24300   24.3           0.01224777    -1142.2957      25.879243     -1116.4164      2437.5816     -511.15325      1048.2227    
     24400   24.4           0.012140718   -1141.7805      26.061646     -1115.7189      2437.5816      21900.289      1055.6108    
     24500   24.5           0.012256052   -1142.286       25.912909     -1116.3731      2437.5816      8847.7361      1049.5863    
     24600   24.6           0.012238836   -1142.9434      22.549953     -1120.3934      2437.5816      18988.949      913.37187    
     24700   24.7           0.012316708   -1142.9526      22.746844     -1120.2058      2437.5816      13941.719      921.34682    
     24800   24.8           0.012224127   -1139.7842      22.01397      -1117.7702      2437.5816      11354.277      891.66223    
     24900   24.9           0.012091248   -1141.2441      24.605804     -1116.6383      2437.5816      12806.361      996.64285    
     25000   25             0.012217827   -1140.8643      24.766951     -1116.0973      2437.5816      13166.715      1003.17      
     25100   25.1           0.012168832   -1138.8284      24.24143      -1114.5869      2437.5816      16953.294      981.8841     
     25200   25.2           0.012162965   -1139.6526      27.709728     -1111.9429      2437.5816      20932.119      1122.3654    
     25300   25.3           0.012154354   -1140.2001      25.690121     -1114.51        2437.5816      13540.693      1040.5624    
     25400   25.4           0.012175658   -1140.731       23.936985     -1116.794       2437.5816      17373.598      969.55275    
     25500   25.5           0.012144843   -1142.7091      25.540199     -1117.1689      2437.5816      19735.761      1034.4899    
     25600   25.6           0.012030516   -1141.9829      24.728861     -1117.254       2437.5816      7699.1553      1001.6272    
     25700   25.7           0.012121627   -1138.8811      24.150312     -1114.7308      2437.5816      20080.346      978.19345    
     25800   25.8           0.012152207   -1136.7903      24.506369     -1112.2839      2437.5816      19571.263      992.6153     
     25900   25.9           0.012193283   -1140.3307      26.668649     -1113.662       2437.5816      23051.061      1080.1971    
     26000   26             0.012177519   -1141.7845      25.757922     -1116.0266      2437.5816      24042.049      1043.3087    
     26100   26.1           0.012095433   -1143.199       26.293959     -1116.905       2437.5816      17838.84       1065.0205    
     26200   26.2           0.012151236   -1142.6663      25.054735     -1117.6115      2437.5816      17879.45       1014.8265    
     26300   26.3           0.012172505   -1142.9202      25.506993     -1117.4132      2437.5816      15915.998      1033.145     
     26400   26.4           0.012177023   -1140.4243      26.814795     -1113.6095      2437.5816      17087.438      1086.1167    
     26500   26.5           0.012174333   -1141.2322      28.383952     -1112.8482      2437.5816      5070.8295      1149.6744    
     26600   26.6           0.012144211   -1141.4827      26.558668     -1114.924       2437.5816      7417.9721      1075.7424    
     26700   26.7           0.012168077   -1142.3531      25.686017     -1116.6671      2437.5816      10258.661      1040.3962    
     26800   26.8           0.012069733   -1140.2258      22.380091     -1117.8457      2437.5816      19199.404      906.49173    
     26900   26.9           0.012106097   -1142.5743      25.249493     -1117.3248      2437.5816      3063.3962      1022.7151    
     27000   27             0.01215308    -1141.6115      24.166563     -1117.4449      2437.5816      10821.587      978.85165    
     27100   27.1           0.01217148    -1144.7703      23.303874     -1121.4664      2437.5816      6687.2103      943.90898    
     27200   27.2           0.012164958   -1146.5001      24.614521     -1121.8856      2437.5816      18039.655      996.99594    
     27300   27.3           0.012188108   -1144.2153      25.227248     -1118.9881      2437.5816      8816.7646      1021.8141    
     27400   27.4           0.012106718   -1142.7689      24.952264     -1117.8167      2437.5816      11559.808      1010.676     
     27500   27.5           0.012240679   -1142.1382      23.908899     -1118.2293      2437.5816      6206.5339      968.41514    
     27600   27.6           0.012260266   -1143.4905      24.518781     -1118.9717      2437.5816      11641.304      993.11804    
     27700   27.7           0.012255068   -1143.864       23.29923      -1120.5648      2437.5816      12045.181      943.72086    
     27800   27.8           0.012228483   -1144.7148      22.673856     -1122.041       2437.5816      12027.117      918.39048    
     27900   27.9           0.012249434   -1144.5105      23.89857      -1120.6119      2437.5816      10524.704      967.99677    
     28000   28             0.012133395   -1143.4022      25.755508     -1117.6467      2437.5816      15373.89       1043.2109    
     28100   28.1           0.012223754   -1141.5776      24.257308     -1117.3203      2437.5816      18004.995      982.52723    
     28200   28.2           0.012243627   -1143.1241      25.417492     -1117.7067      2437.5816      15394.03       1029.5198    
     28300   28.3           0.012241009   -1140.5183      22.87969      -1117.6386      2437.5816      3764.7565      926.72768    
     28400   28.4           0.012275609   -1142.14        25.003351     -1117.1367      2437.5816      22244.73       1012.7453    
     28500   28.5           0.012241101   -1142.446       25.239023     -1117.207       2437.5816      13699.416      1022.291     
     28600   28.6           0.01213757    -1144.5693      26.114142     -1118.4552      2437.5816      8278.561       1057.7371    
     28700   28.7           0.012257961   -1144.9585      25.23895      -1119.7195      2437.5816      22092.249      1022.288     
     28800   28.8           0.012269468   -1142.7488      23.248412     -1119.5004      2437.5816      19576.456      941.66251    
     28900   28.9           0.012279706   -1141.2659      25.562776     -1115.7031      2437.5816      7631.6255      1035.4044    
     29000   29             0.012268624   -1140.1333      25.733721     -1114.3996      2437.5816      9763.3094      1042.3284    
     29100   29.1           0.011055617   -1140.6162      26.239624     -1114.3766      2437.5816      10502.043      1062.8197    
     29200   29.2           0.010288785   -1141.9462      24.62024      -1117.3259      2437.5816      1250.4142      997.22755    
     29300   29.3           0.010392199   -1142.8109      22.910996     -1119.8999      2437.5816      22793.064      927.99571    
     29400   29.4           0.012286155   -1145.0127      25.474394     -1119.5383      2437.5816      14732.026      1031.8246    
     29500   29.5           0.012228531   -1143.2179      24.268079     -1118.9498      2437.5816      17261.817      982.96352    
     29600   29.6           0.010401802   -1139.1658      22.947785     -1116.218       2437.5816      15111.694      929.48582    
     29700   29.7           0.010275395   -1141.2961      27.5456       -1113.7505      2437.5816      24291.973      1115.7175    
     29800   29.8           0.011021785   -1142.1488      27.442316     -1114.7065      2437.5816      10180.564      1111.534     
     29900   29.9           0.012429372   -1139.8792      23.967651     -1115.9115      2437.5816      15451.084      970.79484    
     30000   30             0.012336515   -1140.9409      24.031501     -1116.9094      2437.5816      12880.81       973.38106    
     30100   30.1           0.012250031   -1144.0449      25.936928     -1118.108       2437.5816      20360.372      1050.5592    
     30200   30.2           0.012317702   -1143.9553      23.511503     -1120.4438      2437.5816      12650.161      952.31884    
     30300   30.3           0.012254469   -1145.6141      21.134815     -1124.4793      2437.5816      14448.847      856.0526     
     30400   30.4           0.012282898   -1146.277       22.183304     -1124.0937      2437.5816      18725.461      898.52098    
     30500   30.5           0.01244968    -1147.2166      25.831759     -1121.3848      2437.5816      2404.5078      1046.2994    
     30600   30.6           0.012256499   -1143.8374      24.174106     -1119.6633      2437.5816      8809.3788      979.15718    
     30700   30.7           0.011709749   -1144.6179      26.719984     -1117.8979      2437.5816      15137.934      1082.2764    
     30800   30.8           0.012245939   -1141.9353      25.228376     -1116.7069      2437.5816      23325.676      1021.8597    
     30900   30.9           0.012241665   -1140.2023      24.289055     -1115.9132      2437.5816      16610.814      983.81313    
     31000   31             0.01222395    -1138.9053      23.508493     -1115.3968      2437.5816      16099.356      952.19694    
     31100   31.1           0.01222826    -1142.522       24.547576     -1117.9744      2437.5816      21085.691      994.28435    
     31200   31.2           0.0122335     -1142.6771      23.209677     -1119.4674      2437.5816      16343.323      940.09358    
     31300   31.3           0.01229042    -1141.564       23.258374     -1118.3056      2437.5816      23872.483      942.06601    
     31400   31.4           0.012167001   -1140.1179      24.770924     -1115.347       2437.5816      18180.202      1003.3309    
     31500   31.5           0.012214214   -1140.109       26.734264     -1113.3747      2437.5816      15928.353      1082.8548    
     31600   31.6           0.012227418   -1141.782       23.903433     -1117.8785      2437.5816      22046.643      968.19373    
     31700   31.7           0.012237855   -1144.9392      25.231158     -1119.7081      2437.5816      14178.682      1021.9724    
     31800   31.8           0.012254371   -1144.4774      24.410672     -1120.0667      2437.5816      14450.528      988.73915    
     31900   31.9           0.012251466   -1141.8176      24.070434     -1117.7472      2437.5816      21632.292      974.95802    
     32000   32             0.012308738   -1141.7847      25.941255     -1115.8434      2437.5816      15371.356      1050.7345    
     32100   32.1           0.012140585   -1142.5139      25.641795     -1116.8721      2437.5816      19117.249      1038.605     
     32200   32.2           0.012237771   -1144.267       24.132072     -1120.1349      2437.5816      13959.865      977.45461    
     32300   32.3           0.012247651   -1144.1086      22.520449     -1121.5882      2437.5816      17479.706      912.17682    
     32400   32.4           0.01226645    -1144.8804      24.71117      -1120.1692      2437.5816      5169.6846      1000.9106    
     32500   32.5           0.01224859    -1144.3639      25.634319     -1118.7296      2437.5816      28259.193      1038.3022    
     32600   32.6           0.012262294   -1143.4985      25.721854     -1117.7767      2437.5816      19810.114      1041.8477    
     32700   32.7           0.012191226   -1142.3145      24.160538     -1118.1539      2437.5816      19034.374      978.60764    
     32800   32.8           0.012236081   -1144.7653      24.406311     -1120.3589      2437.5816      11869.402      988.56249    
     32900   32.9           0.012235029   -1142.6663      21.241581     -1121.4247      2437.5816      15175.908      860.37706    
     33000   33             0.012261895   -1144.9049      25.592831     -1119.3121      2437.5816      22970.09       1036.6217    
     33100   33.1           0.011716658   -1141.3158      24.7936       -1116.5222      2437.5816     -866.10892      1004.2494    
     33200   33.2           0.010264014   -1143.0571      26.114286     -1116.9428      2437.5816      18665.061      1057.743     
     33300   33.3           0.011941443   -1142.2705      24.357087     -1117.9134      2437.5816      1039.2854      986.56874    
     33400   33.4           0.012228953   -1142.7529      24.264764     -1118.4882      2437.5816      8284.1987      982.82921    
     33500   33.5           0.012217634   -1142.875       24.35216      -1118.5228      2437.5816      13637.022      986.36917    
     33600   33.6           0.012228074   -1141.3115      22.172577     -1119.1389      2437.5816      14593.979      898.0865     
     33700   33.7           0.012258324   -1143.2266      24.23884      -1118.9877      2437.5816      6328.747       981.77921    
     33800   33.8           0.012222877   -1141.0679      23.920057     -1117.1478      2437.5816     -4899.1646      968.86709    
     33900   33.9           0.012287955   -1140.9325      25.954268     -1114.9782      2437.5816      24420.345      1051.2616    
     34000   34             0.012118888   -1139.9342      24.225383     -1115.7088      2437.5816      10921.613      981.23411    
     34100   34.1           0.01224608    -1143.6104      24.987296     -1118.6231      2437.5816      12440.568      1012.095     
     34200   34.2           0.012254643   -1142.9133      22.50345      -1120.4099      2437.5816     -2486.4809      911.4883     
     34300   34.3           0.012241154   -1143.5347      24.185763     -1119.3489      2437.5816      8715.9173      979.62936    
     34400   34.4           0.01102269    -1139.6882      22.077034     -1117.6112      2437.5816      24042.512      894.21658    
     34500   34.5           0.010934981   -1139.2828      23.561666     -1115.7212      2437.5816      13182.011      954.35068    
     34600   34.6           0.012229769   -1141.5322      26.544164     -1114.9881      2437.5816      16048.18       1075.1549    
     34700   34.7           0.012242264   -1139.5242      23.354446     -1116.1697      2437.5816      21975.93       945.95735    
     34800   34.8           0.012241284   -1143.3323      23.258107     -1120.0742      2437.5816      3509.1164      942.05522    
     34900   34.9           0.012269213   -1145.0305      24.406428     -1120.6241      2437.5816      15180.822      988.56725    
     35000   35             0.012259062   -1143.9309      25.106341     -1118.8246      2437.5816      691.97013      1016.9168    
     35100   35.1           0.012159838   -1140.3208      23.697962     -1116.6228      2437.5816      15710.823      959.87126    
     35200   35.2           0.012314614   -1142.8373      27.661601     -1115.1757      2437.5816      6753.5814      1120.416     
     35300   35.3           0.012230562   -1142.6289      27.498782     -1115.1301      2437.5816      3250.9541      1113.8211    
     35400   35.4           0.012415841   -1142.374       24.783316     -1117.5907      2437.5816      15255.773      1003.8329    
     35500   35.5           0.012472642   -1142.501       21.355969     -1121.145       2437.5816      11373.348      865.01029    
     35600   35.6           0.012342396   -1143.8579      24.461456     -1119.3965      2437.5816      4755.2912      990.79611    
     35700   35.7           0.011996522   -1141.646       24.56139      -1117.0846      2437.5816      19483.682      994.84388    
     35800   35.8           0.012238853   -1140.3306      25.519548     -1114.811       2437.5816      14221.424      1033.6535    
     35900   35.9           0.012225181   -1139.7814      25.909966     -1113.8714      2437.5816      13327.826      1049.4671    
     36000   36             0.012284687   -1142.4382      27.02531      -1115.4129      2437.5816      18607.509      1094.6434    
     36100   36.1           0.012275422   -1140.667       22.227622     -1118.4394      2437.5816      5713.1078      900.31607    
     36200   36.2           0.012130016   -1142.4642      21.769155     -1120.6951      2437.5816      11397.972      881.74613    
     36300   36.3           0.012213603   -1143.2786      24.960156     -1118.3184      2437.5816      12613.864      1010.9957    
     36400   36.4           0.01225755    -1141.7943      26.629988     -1115.1643      2437.5816      14607.082      1078.6312    
     36500   36.5           0.012230611   -1139.9524      24.816757     -1115.1356      2437.5816      17916.724      1005.1874    
     36600   36.6           0.012243868   -1141.1888      23.880092     -1117.3088      2437.5816      3648.9514      967.24832    
     36700   36.7           0.012269983   -1143.6476      23.443493     -1120.2041      2437.5816      28408.34       949.56416    
     36800   36.8           0.012258306   -1143.9789      23.70518      -1120.2737      2437.5816      25327.378      960.16364    
     36900   36.9           0.012106306   -1142.0956      23.218718     -1118.8769      2437.5816      15955.187      940.4598     
     37000   37             0.012265366   -1143.6158      26.411115     -1117.2047      2437.5816      18627.96       1069.7658    
     37100   37.1           0.012207357   -1140.0542      23.283004     -1116.7712      2437.5816      24669.224      943.06364    
     37200   37.2           0.012256927   -1141.9893      25.920057     -1116.0692      2437.5816      4505.5375      1049.8759    
     37300   37.3           0.012224135   -1139.2788      25.883032     -1113.3958      2437.5816      15175.751      1048.3762    
     37400   37.4           0.012269817   -1138.2604      27.31694      -1110.9434      2437.5816      20258.345      1106.4557    
     37500   37.5           0.011950559   -1140.5167      26.093181     -1114.4235      2437.5816      30533.938      1056.8881    
     37600   37.6           0.010507749   -1142.1389      25.171955     -1116.967       2437.5816      19503.182      1019.5744    
     37700   37.7           0.012246478   -1143.1411      24.486925     -1118.6542      2437.5816      24899.168      991.82773    
     37800   37.8           0.012115912   -1141.9968      21.855489     -1120.1413      2437.5816      22283.835      885.24303    
     37900   37.9           0.012202749   -1144.6005      25.836591     -1118.7639      2437.5816      13157.45       1046.4951    
     38000   38             0.012259091   -1141.688       24.892277     -1116.7957      2437.5816      8987.3247      1008.2463    
     38100   38.1           0.012240775   -1142.9232      28.599524     -1114.3237      2437.5816      12323.25       1158.406     
     38200   38.2           0.012120882   -1142.3972      27.313723     -1115.0835      2437.5816      35251.74       1106.3254    
     38300   38.3           0.012218375   -1144.1074      25.19249      -1118.9149      2437.5816      16662.058      1020.4062    
     38400   38.4           0.012161069   -1142.6667      23.434353     -1119.2324      2437.5816      9644.7273      949.19395    
     38500   38.5           0.012233248   -1143.9539      25.35814      -1118.5957      2437.5816      19253.674      1027.1158    
     38600   38.6           0.012265037   -1142.3655      25.635048     -1116.7304      2437.5816      18191.18       1038.3317    
     38700   38.7           0.011998227   -1144.7865      27.940665     -1116.8458      2437.5816      22526.659      1131.7193    
     38800   38.8           0.012394808   -1144.0664      23.371572     -1120.6948      2437.5816      21902.533      946.65103    
     38900   38.9           0.012385662   -1145.6177      24.855051     -1120.7626      2437.5816      13829.822      1006.7384    
     39000   39             0.012429939   -1143.5333      24.216306     -1119.317       2437.5816      10506.255      980.86649    
     39100   39.1           0.01239127    -1141.8938      25.064122     -1116.8297      2437.5816      2336.6207      1015.2067    
     39200   39.2           0.012563904   -1139.1194      25.515518     -1113.6039      2437.5816      16104.111      1033.4903    
     39300   39.3           0.012344645   -1141.215       29.513792     -1111.7012      2437.5816      15863.589      1195.4379    
     39400   39.4           0.012213464   -1142.8757      25.826404     -1117.0493      2437.5816      11570.15       1046.0825    
     39500   39.5           0.012390739   -1143.4675      23.712087     -1119.7554      2437.5816      31735.419      960.44338    
     39600   39.6           0.012347595   -1144.3785      23.316944     -1121.0616      2437.5816      11900.341      944.43839    
     39700   39.7           0.012401168   -1143.2245      21.941298     -1121.2832      2437.5816      5812.9231      888.71869    
     39800   39.8           0.01248923    -1143.9263      24.198933     -1119.7273      2437.5816      17880.852      980.16278    
     39900   39.9           0.012339315   -1143.032       26.450737     -1116.5812      2437.5816      2309.3177      1071.3707    
     40000   40             0.012201652   -1141.2687      25.572998     -1115.6957      2437.5816      11233.219      1035.8184    
     40100   40.1           0.012250628   -1143.043       25.801145     -1117.2418      2437.5816      14570.434      1045.0594    
     40200   40.2           0.01224621    -1142.7528      23.799312     -1118.9535      2437.5816      4604.0463      963.9764     
     40300   40.3           0.012246758   -1144.5195      24.902266     -1119.6173      2437.5816      9536.3097      1008.6509    
     40400   40.4           0.012258587   -1145.0425      25.381415     -1119.6611      2437.5816      12383.385      1028.0585    
     40500   40.5           0.012115434   -1142.5057      23.78678      -1118.719       2437.5816      5419.7556      963.4688     
     40600   40.6           0.01224395    -1139.3379      24.745568     -1114.5923      2437.5816      11750.23       1002.3039    
     40700   40.7           0.012262435   -1139.1562      24.598776     -1114.5575      2437.5816      10480.544      996.35817    
     40800   40.8           0.012239262   -1142.0404      25.327237     -1116.7132      2437.5816      9460.7026      1025.864     
     40900   40.9           0.012255835   -1141.812       23.268241     -1118.5438      2437.5816      17060.725      942.46568    
     41000   41             0.012253284   -1142.7971      24.468919     -1118.3282      2437.5816      16267.851      991.09841    
     41100   41.1           0.012242911   -1143.5354      24.896456     -1118.6389      2437.5816      8359.3524      1008.4155    
     41200   41.2           0.012280299   -1142.1982      21.950644     -1120.2476      2437.5816      13341.993      889.09722    
     41300   41.3           0.012158723   -1142.4481      22.09833      -1120.3498      2437.5816      21575.871      895.07917    
     41400   41.4           0.012229954   -1141.588       23.790888     -1117.7971      2437.5816      8822.8873      963.63518    
     41500   41.5           0.012258205   -1142.7253      26.299271     -1116.4261      2437.5816      16334.883      1065.2357    
     41600   41.6           0.012225156   -1142.1466      24.73121      -1117.4154      2437.5816      14945.444      1001.7223    
     41700   41.7           0.012267188   -1144.7194      24.323241     -1120.3961      2437.5816      16168.671      985.19783    
     41800   41.8           0.012200174   -1144.6143      22.626181     -1121.9881      2437.5816      22874.11       916.45943    
     41900   41.9           0.012191285   -1143.0259      23.750717     -1119.2752      2437.5816      10914.315      962.00808    
     42000   42             0.012252087   -1141.8435      26.059203     -1115.7843      2437.5816      15838.882      1055.5119    
     42100   42.1           0.012238981   -1141.3357      24.660176     -1116.6755      2437.5816      6928.6482      998.84516    
     42200   42.2           0.012238014   -1142.4512      23.346926     -1119.1042      2437.5816      28960.533      945.65278    
     42300   42.3           0.012240227   -1143.8115      23.42207      -1120.3895      2437.5816      583.44109      948.69645    
     42400   42.4           0.012155286   -1144.8608      24.84662      -1120.0142      2437.5816      13236.159      1006.3969    
     42500   42.5           0.012259019   -1142.89        25.161992     -1117.728       2437.5816      5940.1681      1019.1709    
     42600   42.6           0.012306912   -1141.4316      25.919667     -1115.512       2437.5816     -3068.6603      1049.8601    
     42700   42.7           0.011889872   -1142.7871      26.73836      -1116.0487      2437.5816      4423.9877      1083.0207    
     42800   42.8           0.011085777   -1145.7656      25.653077     -1120.1125      2437.5816      10231.744      1039.062     
     42900   42.9           0.011617291   -1144.2748      23.584199     -1120.6906      2437.5816      8446.0845      955.26338    
     43000   43             0.012230155   -1143.2209      23.648817     -1119.5721      2437.5816      13753.397      957.88067    
     43100   43.1           0.012353073   -1142.4878      24.09172      -1118.3961      2437.5816      5121.7771      975.8202     
     43200   43.2           0.011799945   -1144.3639      28.197455     -1116.1664      2437.5816      16086.502      1142.1205    
     43300   43.3           0.01032338    -1141.7856      27.463145     -1114.3225      2437.5816      23397.008      1112.3777    
     43400   43.4           0.010159801   -1142.4773      25.48323      -1116.9941      2437.5816      10731.299      1032.1825    
     43500   43.5           0.010325816   -1145.7858      25.840069     -1119.9457      2437.5816      7589.509       1046.636     
     43600   43.6           0.010284311   -1143.1389      22.341829     -1120.7971      2437.5816      19082.177      904.94194    
     43700   43.7           0.010270162   -1145.252       25.857392     -1119.3946      2437.5816      3881.1002      1047.3376    
     43800   43.8           0.010309727   -1144.0161      26.001587     -1118.0145      2437.5816      1039.056       1053.1782    
     43900   43.9           0.011536747   -1142.7562      26.453506     -1116.3027      2437.5816      8364.849       1071.4829    
     44000   44             0.012251027   -1142.3123      26.485228     -1115.827       2437.5816      18233.222      1072.7678    
     44100   44.1           0.012253445   -1143.359       25.865791     -1117.4932      2437.5816      12595.316      1047.6778    
     44200   44.2           0.012244641   -1145.9812      25.866651     -1120.1146      2437.5816      4820.2856      1047.7127    
     44300   44.3           0.012254679   -1145.0269      24.333394     -1120.6935      2437.5816      10305.356      985.60906    
     44400   44.4           0.012281324   -1143.5198      24.758837     -1118.7609      2437.5816      2739.7037      1002.8414    
     44500   44.5           0.012223736   -1141.3544      26.120413     -1115.234       2437.5816      13354.628      1057.9911    
     44600   44.6           0.012271787   -1140.8772      24.336415     -1116.5408      2437.5816      8708.711       985.73141    
     44700   44.7           0.0122576     -1143.8134      25.857927     -1117.9554      2437.5816      14473.298      1047.3593    
     44800   44.8           0.012238262   -1141.9304      22.897429     -1119.033       2437.5816      9173.6138      927.44616    
     44900   44.9           0.012300556   -1144.0099      24.595478     -1119.4144      2437.5816      13250.188      996.2246     
     45000   45             0.012267467   -1143.6202      25.462546     -1118.1577      2437.5816      3739.691       1031.3447    
     45100   45.1           0.012135336   -1143.5988      25.882898     -1117.7159      2437.5816      8692.1006      1048.3707    
     45200   45.2           0.012286763   -1142.2251      24.19875      -1118.0263      2437.5816      21255.898      980.15536    
     45300   45.3           0.012290016   -1143.8502      25.634147     -1118.2161      2437.5816      19331.995      1038.2953    
     45400   45.4           0.012271581   -1141.4893      23.146968     -1118.3423      2437.5816      24782.807      937.55361    
     45500   45.5           0.012263012   -1143.8651      24.448604     -1119.4165      2437.5816      13370.703      990.27555    
     45600   45.6           0.012271532   -1145.8483      25.026064     -1120.8222      2437.5816      22294.992      1013.6652    
     45700   45.7           0.012165917   -1146.7133      22.555388     -1124.1579      2437.5816      11811.826      913.59203    
     45800   45.8           0.012268153   -1146.136       22.152278     -1123.9837      2437.5816      21311.447      897.26431    
     45900   45.9           0.012261142   -1144.964       24.102944     -1120.861       2437.5816      9939.9216      976.2748     
     46000   46             0.012259175   -1144.1108      24.881936     -1119.2289      2437.5816      15323.87       1007.8274    
     46100   46.1           0.012256026   -1143.4858      25.177152     -1118.3087      2437.5816      11292.442      1019.785     
     46200   46.2           0.012289276   -1144.1963      25.261864     -1118.9344      2437.5816      16543.558      1023.2161    
     46300   46.3           0.012127097   -1144.8381      22.617735     -1122.2204      2437.5816      21946.193      916.11733    
     46400   46.4           0.012285178   -1148.3291      24.846054     -1123.483       2437.5816      11912.365      1006.374     
     46500   46.5           0.012260514   -1146.7681      24.813715     -1121.9544      2437.5816      21151.904      1005.0642    
     46600   46.6           0.012257131   -1142.7534      23.124903     -1119.6285      2437.5816      1877.715       936.65985    
     46700   46.7           0.012247264   -1142.2577      25.88947      -1116.3682      2437.5816      25282.44       1048.6369    
     46800   46.8           0.012247586   -1143.1321      26.60647      -1116.5256      2437.5816      13152.297      1077.6786    
     46900   46.9           0.012242879   -1143.0706      24.549948     -1118.5206      2437.5816      12168.37       994.38042    
     47000   47             0.012237363   -1143.5641      23.290445     -1120.2736      2437.5816      10127.517      943.36506    
     47100   47.1           0.012278342   -1143.9843      23.360225     -1120.624       2437.5816      10565.726      946.19145    
     47200   47.2           0.012158684   -1142.1918      23.935696     -1118.2561      2437.5816      19499.805      969.50053    
     47300   47.3           0.012265083   -1142.5017      27.636849     -1114.8649      2437.5816      14162.862      1119.4134    
     47400   47.4           0.012264615   -1140.4377      24.130283     -1116.3075      2437.5816      19696.031      977.38216    
     47500   47.5           0.01224227    -1144.9874      26.020744     -1118.9667      2437.5816      4305.9488      1053.9541    
     47600   47.6           0.012258331   -1144.6783      24.949286     -1119.7291      2437.5816      12314.109      1010.5554    
     47700   47.7           0.012297115   -1142.4668      23.092052     -1119.3747      2437.5816      12311.346      935.32926    
     47800   47.8           0.011547616   -1141.3066      23.169064     -1118.1376      2437.5816      29339.785      938.44858    
     47900   47.9           0.012244408   -1143.4077      25.740032     -1117.6677      2437.5816      13727.266      1042.584     
     48000   48             0.012255508   -1142.991       25.105879     -1117.8851      2437.5816      20413.062      1016.8981    
     48100   48.1           0.012240247   -1141.7222      23.578076     -1118.1441      2437.5816      18323.575      955.01536    
     48200   48.2           0.012244031   -1142.9901      26.291627     -1116.6985      2437.5816      24892.604      1064.9261    
     48300   48.3           0.012279254   -1141.8392      26.976226     -1114.863       2437.5816      14809.783      1092.6553    
     48400   48.4           0.012142174   -1140.2739      22.766413     -1117.5075      2437.5816      16875.729      922.13945    
     48500   48.5           0.012207735   -1144.7643      24.860206     -1119.9041      2437.5816      8812.9469      1006.9473    
     48600   48.6           0.01224452    -1143.8562      24.069646     -1119.7866      2437.5816      11538.879      974.92611    
     48700   48.7           0.012264252   -1142.5989      24.833037     -1117.7658      2437.5816      9736.5396      1005.8468    
     48800   48.8           0.012290312   -1142.5563      25.372732     -1117.1835      2437.5816      35675.059      1027.7068    
     48900   48.9           0.012366835   -1140.813       23.464632     -1117.3484      2437.5816      6246.1172      950.42037    
     49000   49             0.012121525   -1142.6626      25.613757     -1117.0488      2437.5816      16459.556      1037.4694    
     49100   49.1           0.012231273   -1141.9443      25.498808     -1116.4455      2437.5816      17299.957      1032.8134    
     49200   49.2           0.012249861   -1141.6702      25.874775     -1115.7954      2437.5816      4663.8783      1048.0417    
     49300   49.3           0.012254321   -1140.8054      24.596547     -1116.2089      2437.5816      15439.843      996.26789    
     49400   49.4           0.012230386   -1142.3525      24.31771      -1118.0348      2437.5816      18966.072      984.97378    
     49500   49.5           0.012240911   -1142.1082      22.399321     -1119.7088      2437.5816      12637.912      907.27061    
     49600   49.6           0.01228387    -1141.5872      22.959367     -1118.6278      2437.5816      8346.7238      929.95495    
     49700   49.7           0.012127487   -1140.7966      25.836759     -1114.9599      2437.5816      23215.761      1046.5019    
     49800   49.8           0.012263727   -1138.7649      24.319389     -1114.4455      2437.5816      13106.734      985.0418     
     49900   49.9           0.012246982   -1142.4148      26.628705     -1115.7861      2437.5816     -1384.4099      1078.5792    
     50000   50             0.012244849   -1142.8459      25.737634     -1117.1083      2437.5816      4911.5378      1042.4869    
WARNING: Pair style restartinfo set but has no restart support (src/pair.cpp:754)
     50100   50.1           0.012257713   -1142.6249      24.09174      -1118.5331      2437.5816      25737.46       975.82101    
     50200   50.2           0.012129595   -1144.3851      21.522725     -1122.8624      2437.5816      5313.0886      871.76466    
     50300   50.3           0.012251567   -1143.9098      21.73145      -1122.1783      2437.5816      10067.736      880.21894    
     50400   50.4           0.012189875   -1144.1829      24.447445     -1119.7354      2437.5816      26974.898      990.22862    
     50500   50.5           0.012255741   -1143.9994      25.422748     -1118.5766      2437.5816      11577.658      1029.7327    
     50600   50.6           0.012225154   -1142.4635      24.363178     -1118.1003      2437.5816      18331.754      986.81545    
     50700   50.7           0.012289474   -1142.7426      25.328911     -1117.4136      2437.5816      14346.683      1025.9318    
     50800   50.8           0.012129044   -1140.6899      24.052589     -1116.6374      2437.5816      23969.7        974.23521    
     50900   50.9           0.012265238   -1142.495       23.96135      -1118.5336      2437.5816      20216.382      970.53964    
     51000   51             0.012265608   -1143.6832      23.219405     -1120.4638      2437.5816      15614.153      940.48761    
     51100   51.1           0.012239171   -1144.6365      23.690791     -1120.9457      2437.5816     -3152.254       959.5808     
     51200   51.2           0.012269227   -1144.7378      25.08629      -1119.6515      2437.5816      25619.702      1016.1046    
     51300   51.3           0.012265589   -1140.7145      24.827248     -1115.8872      2437.5816      15306.146      1005.6123    
     51400   51.4           0.012274357   -1140.1283      25.042543     -1115.0858      2437.5816      17285.347      1014.3327    
     51500   51.5           0.012135791   -1142.3778      25.153611     -1117.2242      2437.5816      23274.499      1018.8314    
     51600   51.6           0.012194303   -1143.2354      23.799855     -1119.4355      2437.5816      12336.759      963.99836    
     51700   51.7           0.012337434   -1142.5944      22.369316     -1120.225       2437.5816      18201.729      906.05528    
     51800   51.8           0.012250624   -1144.2191      24.573104     -1119.646       2437.5816      20116.302      995.31835    
     51900   51.9           0.012362639   -1145.215       26.816573     -1118.3984      2437.5816      4258.3538      1086.1887    
     52000   52             0.012275305   -1143.4619      25.22705      -1118.2349      2437.5816      23914.397      1021.806     
     52100   52.1           0.012147531   -1143.1292      24.140172     -1118.989       2437.5816      20758.399      977.78273    
     52200   52.2           0.012229339   -1144.7325      25.52368      -1119.2089      2437.5816      28733.013      1033.8208    
     52300   52.3           0.011377186   -1144.0945      25.190482     -1118.904       2437.5816      10834.082      1020.3249    
     52400   52.4           0.011847792   -1141.7424      23.827928     -1117.9145      2437.5816      22107.665      965.13545    
     52500   52.5           0.012650808   -1141.4794      26.092453     -1115.3869      2437.5816      16159.278      1056.8586    
     52600   52.6           0.012480375   -1139.0311      25.813423     -1113.2177      2437.5816      6786.462       1045.5567    
     52700   52.7           0.012280926   -1140.6619      25.673264     -1114.9886      2437.5816      11166.082      1039.8797    
     52800   52.8           0.012358608   -1142.0679      23.991855     -1118.076       2437.5816      8864.5386      971.77524    
     52900   52.9           0.012238099   -1142.1915      24.135171     -1118.0564      2437.5816      9596.6793      977.58013    
     53000   53             0.012273821   -1143.1202      25.745669     -1117.3746      2437.5816      18171.407      1042.8124    
     53100   53.1           0.012269561   -1140.8304      24.756918     -1116.0735      2437.5816      18972.043      1002.7636    
     53200   53.2           0.012263452   -1138.8488      25.090647     -1113.7581      2437.5816      17823.098      1016.2811    
     53300   53.3           0.012138942   -1138.937       25.639961     -1113.2971      2437.5816      14481.991      1038.5308    
     53400   53.4           0.012221523   -1143.7162      26.067797     -1117.6484      2437.5816      9720.7324      1055.86      
     53500   53.5           0.012283298   -1145.0245      25.536975     -1119.4876      2437.5816      9143.1363      1034.3594    
     53600   53.6           0.012262892   -1145.1348      25.346161     -1119.7886      2437.5816      28548.553      1026.6306    
     53700   53.7           0.01225904    -1142.7634      23.869132     -1118.8943      2437.5816      19939.239      966.80441    
     53800   53.8           0.012170028   -1143.4131      26.582526     -1116.8306      2437.5816     -3524.7339      1076.7087    
     53900   53.9           0.012256691   -1143.3679      26.314065     -1117.0539      2437.5816      16481.427      1065.8349    
     54000   54             0.012251645   -1144.9933      24.089499     -1120.9038      2437.5816      6725.5684      975.73024    
     54100   54.1           0.012245239   -1145.2034      24.038718     -1121.1647      2437.5816      3979.3123      973.67339    
     54200   54.2           0.012260451   -1144.502       25.619483     -1118.8825      2437.5816      18394.547      1037.7013    
     54300   54.3           0.012258183   -1144.0911      26.532869     -1117.5582      2437.5816      18181.78       1074.6974    
     54400   54.4           0.012110995   -1141.8469      23.439792     -1118.4071      2437.5816      19176.999      949.41424    
     54500   54.5           0.012359036   -1143.1434      24.635135     -1118.5083      2437.5816      15068.651      997.8309     
     54600   54.6           0.012358942   -1143.6628      25.107174     -1118.5557      2437.5816      13073.935      1016.9505    
     54700   54.7           0.012267465   -1142.9806      24.239116     -1118.7415      2437.5816      10868.993      981.79039    
     54800   54.8           0.012282255   -1142.8193      26.741206     -1116.0781      2437.5816      26304.461      1083.136     
     54900   54.9           0.012300353   -1140.1292      26.851181     -1113.278       2437.5816      21192.449      1087.5904    
     55000   55             0.012250318   -1142.3171      26.61257      -1115.7046      2437.5816      17965.355      1077.9256    
     55100   55.1           0.012129527   -1142.0408      23.750623     -1118.2901      2437.5816      16376.813      962.00425    
     55200   55.2           0.01222638    -1141.9504      23.504372     -1118.4461      2437.5816      7420.5117      952.03004    
     55300   55.3           0.012242691   -1143.3286      25.833393     -1117.4952      2437.5816      19595.981      1046.3656    
     55400   55.4           0.012232218   -1140.9622      24.423912     -1116.5382      2437.5816      23413.083      989.27543    
     55500   55.5           0.012367963   -1142.4478      27.497832     -1114.9499      2437.5816      21941.495      1113.7827    
     55600   55.6           0.012195618   -1140.2808      24.622265     -1115.6585      2437.5816      17345.826      997.3096     
     55700   55.7           0.012233062   -1142.4779      23.107803     -1119.3701      2437.5816      20657.239      935.96726    
     55800   55.8           0.012233977   -1145.1887      24.986573     -1120.2021      2437.5816      11562.229      1012.0657    
     55900   55.9           0.012202347   -1143.1016      24.132674     -1118.9689      2437.5816      7016.6133      977.479      
[...]
    387000   387            0.012223888   -1148.2693      25.884047     -1122.3852      2437.5816      5101.9863      1048.4173    
    387100   387.1          0.012257233   -1148.0945      25.538648     -1122.5558      2437.5816      14768.987      1034.4271    
    387200   387.2          0.012258429   -1148.703       25.153376     -1123.5496      2437.5816      6049.5428      1018.8219    
    387300   387.3          0.01225258    -1148.041       22.697557     -1125.3435      2437.5816      29378.793      919.3505     
    387400   387.4          0.012252868   -1149.5632      23.686189     -1125.877       2437.5816      12180.006      959.39442    
    387500   387.5          0.012021857   -1147.9719      23.384302     -1124.5876      2437.5816      25377.323      947.16669    
    387600   387.6          0.012129044   -1146.6776      25.478174     -1121.1994      2437.5816      3230.2763      1031.9777    
    387700   387.7          0.012255139   -1145.5848      25.355357     -1120.2295      2437.5816      14561.431      1027.003     
    387800   387.8          0.012225286   -1147.0195      24.873435     -1122.1461      2437.5816      29142.665      1007.4831    
    387900   387.9          0.012226031   -1147.8289      23.66371      -1124.1651      2437.5816      11205.461      958.4839     
    388000   388            0.012218165   -1146.1975      21.858335     -1124.3392      2437.5816      14086.075      885.35831    
    388100   388.1          0.012262956   -1147.321       23.857746     -1123.4633      2437.5816      17139.015      966.34323    
    388200   388.2          0.01228863    -1148.3779      25.965742     -1122.4122      2437.5816      8554.3977      1051.7263    
    388300   388.3          0.012263915   -1145.2548      22.690556     -1122.5642      2437.5816      16688.032      919.0669     
    388400   388.4          0.012268351   -1148.3865      24.705008     -1123.6815      2437.5816      11655.727      1000.661     
    388500   388.5          0.012316204   -1148.1996      24.211413     -1123.9882      2437.5816      19628.731      980.66828    
    388600   388.6          0.010196386   -1147.2595      25.493621     -1121.7659      2437.5816      17163.841      1032.6033    
    388700   388.7          0.010293891   -1145.2827      25.34529      -1119.9374      2437.5816     -5632.8899      1026.5953    
    388800   388.8          0.010337824   -1145.5486      25.215634     -1120.333       2437.5816      6877.2756      1021.3436    
    388900   388.9          0.010269941   -1147.0688      22.947377     -1124.1215      2437.5816      7823.7009      929.46929    
    389000   389            0.010260957   -1150.1914      24.913192     -1125.2782      2437.5816      3484.278       1009.0934    
    389100   389.1          0.010265431   -1150.6794      25.90404      -1124.7754      2437.5816      14015.998      1049.2271    
    389200   389.2          0.010284439   -1146.1938      24.187366     -1122.0065      2437.5816      20983.096      979.69429    
    389300   389.3          0.010102498   -1145.3608      25.759188     -1119.6017      2437.5816      4531.1101      1043.36      
    389400   389.4          0.0099708601  -1146.0315      25.06147      -1120.97        2437.5816      16387.604      1015.0993    
    389500   389.5          0.010040559   -1147.6897      24.675855     -1123.0138      2437.5816      11612.993      999.48021    
    389600   389.6          0.010597992   -1148.0615      24.578769     -1123.4828      2437.5816      8364.1843      995.54782    
    389700   389.7          0.011105084   -1146.6152      24.141404     -1122.4738      2437.5816      8413.618       977.83261    
    389800   389.8          0.011967935   -1145.3721      25.645787     -1119.7263      2437.5816      5978.4007      1038.7667    
    389900   389.9          0.012155154   -1147.4263      26.176082     -1121.2502      2437.5816      6013.6926      1060.246     
    390000   390            0.012266297   -1148.0974      23.860225     -1124.2372      2437.5816      5445.1251      966.44364    
    390100   390.1          0.012194738   -1148.272       24.855562     -1123.4164      2437.5816      19266.042      1006.7591    
    390200   390.2          0.012272661   -1146.0632      23.806865     -1122.2564      2437.5816      14405.289      964.28231    
    390300   390.3          0.01237604    -1146.3843      25.572995     -1120.8113      2437.5816      13851.738      1035.8183    
    390400   390.4          0.012244262   -1144.4934      24.416169     -1120.0772      2437.5816      10685.275      988.9618     
    390500   390.5          0.012268167   -1145.6335      24.232042     -1121.4015      2437.5816      4262.293       981.50385    
    390600   390.6          0.012252411   -1147.5844      24.179563     -1123.4048      2437.5816      8630.739       979.37824    
    390700   390.7          0.012210273   -1148.2844      23.592359     -1124.6921      2437.5816      2699.0551      955.5939     
    390800   390.8          0.012253982   -1146.3588      23.33777      -1123.021       2437.5816      6306.3862      945.28192    
    390900   390.9          0.012257088   -1145.374       25.747306     -1119.6267      2437.5816      3964.3369      1042.8787    
    391000   391            0.012256411   -1145.2836      25.44829      -1119.8353      2437.5816      7372.2927      1030.7672    
    391100   391.1          0.012310393   -1145.1578      23.106788     -1122.051       2437.5816      12923.062      935.92612    
    391200   391.2          0.012258267   -1145.9546      22.375405     -1123.5792      2437.5816      16237.251      906.30193    
    391300   391.3          0.012197537   -1146.5078      23.241167     -1123.2666      2437.5816      20700.156      941.36908    
    391400   391.4          0.010741727   -1148.7244      26.124961     -1122.5994      2437.5816      10088.487      1058.1754    
    391500   391.5          0.010304836   -1146.5088      24.497884     -1122.0109      2437.5816      1463.5523      992.27159    
    391600   391.6          0.010270289   -1146.6305      25.114425     -1121.5161      2437.5816      3085.3877      1017.2442    
    391700   391.7          0.01031711    -1147.4282      27.078878     -1120.3493      2437.5816      18198.169      1096.8132    
    391800   391.8          0.010324042   -1144.3199      23.870922     -1120.449       2437.5816      8310.8177      966.87692    
    391900   391.9          0.012213108   -1145.1798      25.11909      -1120.0607      2437.5816      7836.1559      1017.4332    
    392000   392            0.011954247   -1144.4905      23.785867     -1120.7046      2437.5816      9722.2265      963.4318     
    392100   392.1          0.010566052   -1149.3652      25.495129     -1123.8701      2437.5816      10285.913      1032.6644    
    392200   392.2          0.010373497   -1148.7103      23.08748      -1125.6228      2437.5816     -1505.0595      935.14408    
    392300   392.3          0.010225938   -1149.1958      24.85054      -1124.3453      2437.5816      9501.2435      1006.5557    
    392400   392.4          0.010375483   -1147.632       24.872619     -1122.7593      2437.5816      10496.769      1007.45      
    392500   392.5          0.010254297   -1146.4873      25.576412     -1120.9109      2437.5816      11206.589      1035.9567    
    392600   392.6          0.010309625   -1144.1306      25.546356     -1118.5843      2437.5816      19788.959      1034.7393    
    392700   392.7          0.010313241   -1144.949       27.056211     -1117.8928      2437.5816      18367.629      1095.8951    
    392800   392.8          0.010238645   -1146.8469      25.464457     -1121.3825      2437.5816      12050.032      1031.4221    
    392900   392.9          0.01139403    -1145.9199      22.723851     -1123.1961      2437.5816     -2636.7685      920.41551    
    393000   393            0.012191471   -1146.2999      24.055856     -1122.2441      2437.5816      8305.8919      974.36752    
    393100   393.1          0.012286283   -1144.3486      24.293932     -1120.0547      2437.5816      4772.1463      984.01068    
    393200   393.2          0.012276602   -1144.3037      26.159337     -1118.1444      2437.5816      14239.867      1059.5677    
    393300   393.3          0.012302872   -1143.6216      24.775582     -1118.846       2437.5816      10513.318      1003.5196    
    393400   393.4          0.012239583   -1148.1912      25.442522     -1122.7486      2437.5816      15549.605      1030.5336    
    393500   393.5          0.01225065    -1148.5659      23.819009     -1124.7469      2437.5816      7809.4134      964.7742     
    393600   393.6          0.01231365    -1148.4321      24.352947     -1124.0792      2437.5816      7903.6919      986.40102    
    393700   393.7          0.012216425   -1147.2296      25.280862     -1121.9488      2437.5816      18705.793      1023.9857    
    393800   393.8          0.012250323   -1147.9634      28.495191     -1119.4682      2437.5816      19764.195      1154.1801    
    393900   393.9          0.012274095   -1145.4098      24.70357      -1120.7062      2437.5816      27463.535      1000.6028    
    394000   394            0.012003721   -1149.8208      26.709758     -1123.111       2437.5816      15156.639      1081.8622    
    394100   394.1          0.012335913   -1148.7456      24.756852     -1123.9888      2437.5816      22873.645      1002.761     
    394200   394.2          0.012266971   -1148.3716      24.103193     -1124.2684      2437.5816      9187.5979      976.28491    
    394300   394.3          0.012247022   -1148.6514      25.375589     -1123.2758      2437.5816      5514.9955      1027.8225    
    394400   394.4          0.012258801   -1148.4904      27.079943     -1121.4104      2437.5816      13359.362      1096.8563    
    394500   394.5          0.01227083    -1146.309       25.863086     -1120.4459      2437.5816      7963.9042      1047.5683    
    394600   394.6          0.012265795   -1147.4618      26.037661     -1121.4241      2437.5816      7534.6816      1054.6393    
    394700   394.7          0.012269162   -1147.4778      22.969366     -1124.5084      2437.5816      15552.464      930.35992    
    394800   394.8          0.012288698   -1151.9553      26.000526     -1125.9548      2437.5816      18164.511      1053.1352    
    394900   394.9          0.012147434   -1150.4501      24.333994     -1126.1161      2437.5816      15214.274      985.63335    
    395000   395            0.01224461    -1147.7239      25.432046     -1122.2918      2437.5816     -2149.7202      1030.1093    
    395100   395.1          0.012269107   -1144.9393      24.709322     -1120.23        2437.5816      21153.136      1000.8358    
    395200   395.2          0.012266296   -1146.293       25.255919     -1121.0371      2437.5816      9149.3366      1022.9753    
    395300   395.3          0.012277375   -1148.8037      25.645268     -1123.1584      2437.5816      10279.322      1038.7457    
    395400   395.4          0.012234913   -1149.4817      24.166625     -1125.3151      2437.5816      11157.354      978.85419    
    395500   395.5          0.012232791   -1149.0828      22.699339     -1126.3834      2437.5816      8168.0354      919.42266    
    395600   395.6          0.012115312   -1148.3735      26.186764     -1122.1868      2437.5816      17021.249      1060.6787    
    395700   395.7          0.012063322   -1145.572       25.259311     -1120.3127      2437.5816      12578.238      1023.1127    
    395800   395.8          0.012047504   -1145.9736      24.086396     -1121.8872      2437.5816      6240.7571      975.60454    
    395900   395.9          0.012259406   -1147.3164      23.603576     -1123.7128      2437.5816      13712.87       956.04823    
    396000   396            0.01224384    -1149.9117      24.984536     -1124.9272      2437.5816      14287.102      1011.9831    
    396100   396.1          0.012271537   -1148.4856      22.137308     -1126.3483      2437.5816      9521.278       896.65795    
    396200   396.2          0.012267231   -1148.8823      23.405214     -1125.4771      2437.5816      20038.333      948.01368    
    396300   396.3          0.012275239   -1148.6787      26.833862     -1121.8448      2437.5816      24981.265      1086.889     
    396400   396.4          0.012256529   -1146.6541      25.764976     -1120.8891      2437.5816      12971.054      1043.5944    
    396500   396.5          0.012240165   -1148.4821      26.292095     -1122.19        2437.5816     -2974.7325      1064.945     
    396600   396.6          0.012200778   -1150.0349      24.980212     -1125.0547      2437.5816      6316.9747      1011.808     
    396700   396.7          0.012262596   -1147.9153      22.829889     -1125.0854      2437.5816      7283.4971      924.71049    
    396800   396.8          0.012259176   -1146.8674      23.075299     -1123.7921      2437.5816      12516.839      934.65068    
    396900   396.9          0.012261417   -1148.2922      25.157074     -1123.1352      2437.5816      20998.452      1018.9717    
    397000   397            0.012278932   -1145.9248      22.245941     -1123.6789      2437.5816      7847.6479      901.05805    
    397100   397.1          0.012242186   -1149.3093      23.795618     -1125.5137      2437.5816      9028.8133      963.82678    
    397200   397.2          0.012242028   -1150.8408      22.087954     -1128.7529      2437.5816      11603.328      894.6589     
    397300   397.3          0.012107955   -1150.7092      22.34341      -1128.3658      2437.5816      9629.9898      905.00599    
    397400   397.4          0.012281428   -1150.3639      25.499697     -1124.8642      2437.5816      14184.534      1032.8494    
    397500   397.5          0.012273167   -1148.3969      25.088902     -1123.3079      2437.5816      17295.645      1016.2104    
    397600   397.6          0.012301278   -1148.4062      26.360704     -1122.0455      2437.5816      21811.849      1067.724     
    397700   397.7          0.012301354   -1146.5962      23.929826     -1122.6664      2437.5816      11336.904      969.26279    
    397800   397.8          0.012271797   -1147.7499      23.313257     -1124.4366      2437.5816      30071.825      944.28905    
    397900   397.9          0.012295375   -1148.5282      21.541829     -1126.9864      2437.5816      12906.017      872.53844    
    398000   398            0.012143056   -1150.4021      24.154151     -1126.2479      2437.5816     -3159.5594      978.34891    
    398100   398.1          0.012109925   -1148.4482      25.385581     -1123.0627      2437.5816      1643.8102      1028.2272    
    398200   398.2          0.012250641   -1146.9747      26.33623      -1120.6385      2437.5816      6590.0181      1066.7327    
    398300   398.3          0.012241146   -1147.9982      25.988119     -1122.01        2437.5816      20857.883      1052.6327    
    398400   398.4          0.012240294   -1146.8096      22.939531     -1123.87        2437.5816      3536.6931      929.15151    
    398500   398.5          0.012001829   -1148.282       24.405769     -1123.8762      2437.5816     -149.23466      988.54055    
    398600   398.6          0.012215855   -1150.3616      26.267414     -1124.0942      2437.5816      20929.922      1063.9453    
    398700   398.7          0.012100462   -1148.0869      23.965868     -1124.121       2437.5816      7645.3347      970.72264    
    398800   398.8          0.012001699   -1145.5967      23.713532     -1121.8831      2437.5816      11480.357      960.5019     
    398900   398.9          0.01217465    -1146.2468      26.352413     -1119.8944      2437.5816      17314.837      1067.3882    
    399000   399            0.012203969   -1148.481       26.047119     -1122.4338      2437.5816      14682.818      1055.0224    
    399100   399.1          0.012193015   -1149.3843      25.224496     -1124.1598      2437.5816      10286.431      1021.7026    
    399200   399.2          0.012160027   -1147.4639      24.186418     -1123.2774      2437.5816      8880.6038      979.65587    
    399300   399.3          0.012206039   -1146.3118      23.638719     -1122.673       2437.5816      7814.3489      957.47166    
    399400   399.4          0.012055377   -1147.4642      25.091211     -1122.373       2437.5816      5533.8969      1016.304     
    399500   399.5          0.012113765   -1146.2615      23.770505     -1122.491       2437.5816      14607.58       962.8096     
    399600   399.6          0.012252371   -1147.2264      23.470513     -1123.7559      2437.5816      8848.0229      950.6586     
    399700   399.7          0.012350035   -1150.1321      25.171445     -1124.9606      2437.5816      16204.61       1019.5538    
    399800   399.8          0.012234062   -1149.0962      23.972273     -1125.1239      2437.5816      23618.597      970.98208    
    399900   399.9          0.012311714   -1147.8292      25.109704     -1122.7195      2437.5816      3830.8125      1017.053     
    400000   400            0.012284234   -1145.4692      24.93647      -1120.5328      2437.5816      2129.3471      1010.0363    
WARNING: Pair style restartinfo set but has no restart support (src/pair.cpp:754)
    400100   400.1          0.012271507   -1146.3889      25.216161     -1121.1728      2437.5816      11109.918      1021.365     
    400200   400.2          0.012316572   -1147.0994      23.37147      -1123.7279      2437.5816      15222.292      946.64691    
    400300   400.3          0.012264118   -1148.8762      22.320771     -1126.5555      2437.5816      4538.2608      904.08899    
    400400   400.4          0.012258576   -1148.9966      23.443719     -1125.5529      2437.5816      1536.7718      949.57333    
    400500   400.5          0.011046851   -1149.6764      25.30605      -1124.3703      2437.5816      5254.7878      1025.0059    
    400600   400.6          0.011053899   -1147.1064      23.720265     -1123.3862      2437.5816      3213.3545      960.77462    
    400700   400.7          0.011054703   -1145.5349      24.116731     -1121.4182      2437.5816      14905.196      976.83327    
    400800   400.8          0.011047045   -1147.9747      28.762992     -1119.2117      2437.5816      17936.664      1165.0272    
    400900   400.9          0.011062016   -1147.4172      25.690707     -1121.7265      2437.5816     -5264.7625      1040.5862    
    401000   401            0.011158499   -1151.3647      26.236679     -1125.1281      2437.5816      211.70174      1062.7004    
Loop time of 33551.8 on 1 procs for 400000 steps with 192 atoms

Performance: 1.030 ns/day, 23.300 hours/ns, 11.922 timesteps/s, 2.289 katom-step/s
99.9% CPU use with 1 MPI tasks x 1 OpenMP threads

MPI task timing breakdown:
Section |  min time  |  avg time  |  max time  |%varavg| %total
---------------------------------------------------------------
Pair    | 33508      | 33508      | 33508      |   0.0 | 99.87
Neigh   | 24.366     | 24.366     | 24.366     |   0.0 |  0.07
Comm    | 8.3603     | 8.3603     | 8.3603     |   0.0 |  0.02
Output  | 0.9568     | 0.9568     | 0.9568     |   0.0 |  0.00
Modify  | 7.3794     | 7.3794     | 7.3794     |   0.0 |  0.02
Other   |            | 2.5        |            |       |  0.01

Nlocal:            192 ave         192 max         192 min
Histogram: 1 0 0 0 0 0 0 0 0 0
Nghost:           1467 ave        1467 max        1467 min
Histogram: 1 0 0 0 0 0 0 0 0 0
Neighs:              0 ave           0 max           0 min
Histogram: 1 0 0 0 0 0 0 0 0 0
FullNghs:        21478 ave       21478 max       21478 min
Histogram: 1 0 0 0 0 0 0 0 0 0

Total # of neighbors = 21478
Ave neighs/atom = 111.86458
Neighbor list builds = 12141
Dangerous builds = 0
Total wall time: 9:20:50
